
     Program PWSCF v.6.6 starts on  8Sep2023 at 14:25: 8 

     This program is part of the open-source Quantum ESPRESSO suite
     for quantum simulation of materials; please cite
         "P. Giannozzi et al., J. Phys.:Condens. Matter 21 395502 (2009);
         "P. Giannozzi et al., J. Phys.:Condens. Matter 29 465901 (2017);
          URL http://www.quantum-espresso.org", 
     in publications or presentations arising from this work. More details at
     http://www.quantum-espresso.org/quote

     Parallel version (MPI), running on    56 processors

     MPI processes distributed on     1 nodes
     K-points division:     npool     =       4
     R & G space division:  proc/nbgrp/npool/nimage =      14
     Fft bands division:     nmany     =       1
     Reading input from input.in
     Message from routine read_cards :
     DEPRECATED: no units specified in CELL_PARAMETERS card

     Current dimensions of program PWSCF are:
     Max number of different atomic species (ntypx) = 10
     Max number of k-points (npk) =  40000
     Max angular momentum in pseudopotentials (lmaxx) =  3
     Message from routine volume:
     axis vectors are left-handed

     Atomic positions and unit cell read from directory:
     ./pwscf.save/
     Atomic positions from file used, from input discarded
 
     Message from routine volume:
     axis vectors are left-handed

     Subspace diagonalization in iterative solution of the eigenvalue problem:
     a serial algorithm will be used

     Message from routine setup:
     using ibrav=0 with symmetry is DISCOURAGED, use correct ibrav instead
 
     Parallelization info
     --------------------
     sticks:   dense  smooth     PW     G-vecs:    dense   smooth      PW
     Min         196     196     53                 6792     6792     966
     Max         197     197     54                 6794     6794     971
     Sum        2749    2749    745                95097    95097   13539
 


     bravais-lattice index     =            0
     lattice parameter (alat)  =       7.9000  a.u.
     unit-cell volume          =     986.0780 (a.u.)^3
     number of atoms/cell      =           16
     number of atomic types    =            4
     number of electrons       =       192.00
     number of Kohn-Sham states=          120
     kinetic-energy cutoff     =      80.0000  Ry
     charge density cutoff     =     320.0000  Ry
     Exchange-correlation= PBE
                           (   1   4   3   4   0   0   0)

     celldm(1)=   7.900000  celldm(2)=   0.000000  celldm(3)=   0.000000
     celldm(4)=   0.000000  celldm(5)=   0.000000  celldm(6)=   0.000000

     crystal axes: (cart. coord. in units of alat)
               a(1) = (   1.000000   1.000000   0.000000 )  
               a(2) = (   1.000000   0.000000   1.000000 )  
               a(3) = (   0.000000   1.000000   1.000000 )  

     reciprocal axes: (cart. coord. in units 2 pi/alat)
               b(1) = (  0.500000  0.500000 -0.500000 )  
               b(2) = (  0.500000 -0.500000  0.500000 )  
               b(3) = ( -0.500000  0.500000  0.500000 )  


     PseudoPot. # 1 for Ni read from file:
     ../input/Ni_ONCV_PBE_fr.upf
     MD5 check sum: 1d6d985dc8681998a6b21bb9c8828dba
     Pseudo is Norm-conserving + core correction, Zval = 18.0
     Generated using ONCVPSP code by D. R. Hamann
     Using radial grid of 1372 points,  6 beta functions with: 
                l(1) =   0
                l(2) =   0
                l(3) =   1
                l(4) =   1
                l(5) =   2
                l(6) =   2

     PseudoPot. # 2 for Ni read from file:
     ../input/Ni_ONCV_PBE_fr.upf
     MD5 check sum: 1d6d985dc8681998a6b21bb9c8828dba
     Pseudo is Norm-conserving + core correction, Zval = 18.0
     Generated using ONCVPSP code by D. R. Hamann
     Using radial grid of 1372 points,  6 beta functions with: 
                l(1) =   0
                l(2) =   0
                l(3) =   1
                l(4) =   1
                l(5) =   2
                l(6) =   2

     PseudoPot. # 3 for Ni read from file:
     ../input/Ni_ONCV_PBE_fr.upf
     MD5 check sum: 1d6d985dc8681998a6b21bb9c8828dba
     Pseudo is Norm-conserving + core correction, Zval = 18.0
     Generated using ONCVPSP code by D. R. Hamann
     Using radial grid of 1372 points,  6 beta functions with: 
                l(1) =   0
                l(2) =   0
                l(3) =   1
                l(4) =   1
                l(5) =   2
                l(6) =   2

     PseudoPot. # 4 for O  read from file:
     ../input/O_ONCV_PBE_fr.upf
     MD5 check sum: cce762a7abf7b05e8b0c1bb572795511
     Pseudo is Norm-conserving + core correction, Zval =  6.0
     Generated using ONCVPSP code by D. R. Hamann
     Using radial grid of  936 points,  5 beta functions with: 
                l(1) =   0
                l(2) =   0
                l(3) =   1
                l(4) =   1
                l(5) =   2

     atomic species   valence    mass     pseudopotential
        Ni1           18.00     1.00000     Ni( 1.00)
        Ni2           18.00     1.00000     Ni( 1.00)
        Ni3           18.00     1.00000     Ni( 1.00)
        O1             6.00     1.00000     O ( 1.00)

     Starting magnetic structure 
     atomic species   magnetization
        Ni1          0.500
        Ni2          0.500
        Ni3         -0.500
        O1           0.000


     Simplified LDA+U calculation (l_max = 2) with parameters (eV):
     atomic species    L          U    alpha       J0     beta
        Ni1            2     0.0000   0.1000   0.0000   0.0000
        Ni2            2     0.0000   0.0000   0.0000   0.0000
        Ni3            2     0.0000   0.0000   0.0000   0.0000
        O1             1     0.0000   0.0000   0.0000   0.0000



     12 Sym. Ops., with inversion, found



   Cartesian axes

     site n.     atom                  positions (alat units)
         1           Ni1 tau(   1) = (   0.0000000   0.0000000   0.0000000  )
         2           Ni2 tau(   2) = (   1.0000000   0.5000000   0.5000000  )
         3           Ni2 tau(   3) = (   0.5000000   1.0000000   0.5000000  )
         4           Ni2 tau(   4) = (   0.5000000   0.5000000   1.0000000  )
         5           Ni3 tau(   5) = (   0.5000000   0.5000000   0.0000000  )
         6           Ni3 tau(   6) = (   0.5000000   0.0000000   0.5000000  )
         7           Ni3 tau(   7) = (   0.0000000   0.5000000   0.5000000  )
         8           Ni3 tau(   8) = (   1.0000000   1.0000000   1.0000000  )
         9           O1  tau(   9) = (   0.0000000   0.0000000   0.5000000  )
        10           O1  tau(  10) = (   0.5000000   0.5000000   0.5000000  )
        11           O1  tau(  11) = (   0.0000000   0.5000000   1.0000000  )
        12           O1  tau(  12) = (   0.5000000   0.0000000   1.0000000  )
        13           O1  tau(  13) = (   1.0000000   0.5000000   1.0000000  )
        14           O1  tau(  14) = (   0.5000000   1.0000000   1.0000000  )
        15           O1  tau(  15) = (   0.5000000   0.5000000   1.5000000  )
        16           O1  tau(  16) = (   1.0000000   1.0000000   1.5000000  )

     number of k points=     4  Gaussian smearing, width (Ry)=  0.0100
                       cart. coord. in units 2pi/alat
        k(    1) = (   0.0000000   0.0000000   0.0000000), wk =   0.1250000
        k(    2) = (   0.2500000  -0.2500000  -0.2500000), wk =   0.3750000
        k(    3) = (   0.0000000   0.0000000  -0.5000000), wk =   0.3750000
        k(    4) = (  -0.2500000  -0.2500000  -0.2500000), wk =   0.1250000

     Dense  grid:    95097 G-vectors     FFT dimensions: (  64,  64,  64)

     Estimated max dynamical RAM per process >      24.55 MB

     Estimated total dynamical RAM >       1.34 GB
     Generating pointlists ...
     new r_m :   0.2063 (alat units)  1.6294 (a.u.) for type    1
     new r_m :   0.2062 (alat units)  1.6294 (a.u.) for type    2
     new r_m :   0.2062 (alat units)  1.6294 (a.u.) for type    3
     new r_m :   0.2062 (alat units)  1.6294 (a.u.) for type    4

     The potential is recalculated from file :
     ./pwscf.save/charge-density

     Number of +U iterations with fixed ns =  0
     Starting occupations:
 --- enter write_ns ---
 LDA+U parameters:
U( 1)     =  0.00000000
alpha( 1) =  0.10000000
U( 2)     =  0.00000000
U( 3)     =  0.00000000
U( 4)     =  0.00000000
atom    1   Tr[ns(na)] (up, down, total) =   4.95331  3.64050  8.59382
   spin  1
    eigenvalues: 
  0.983  0.983  0.996  0.996  0.996
    eigenvectors:
  0.001  0.999  0.000  0.000  0.000
  0.000  0.000  0.333  0.000  0.666
  0.000  0.000  0.333  0.489  0.178
  0.999  0.001  0.000  0.000  0.000
  0.000  0.000  0.333  0.511  0.156
    occupations:
  0.983 -0.000 -0.000  0.000 -0.000
 -0.000  0.996 -0.000 -0.000  0.000
 -0.000 -0.000  0.996  0.000  0.000
  0.000 -0.000  0.000  0.983 -0.000
 -0.000  0.000  0.000 -0.000  0.996
   spin  2
    eigenvalues: 
  0.332  0.332  0.992  0.992  0.992
    eigenvectors:
  0.737  0.263  0.000  0.000  0.000
  0.000  0.000  0.009  0.658  0.333
  0.000  0.000  0.430  0.236  0.333
  0.263  0.737  0.000  0.000  0.000
  0.000  0.000  0.561  0.106  0.333
    occupations:
  0.332  0.001  0.001  0.000  0.001
  0.001  0.992  0.000  0.001 -0.000
  0.001  0.000  0.992 -0.001 -0.000
  0.000  0.001 -0.001  0.332 -0.000
  0.001 -0.000 -0.000 -0.000  0.992
atomic mag. moment =   1.31281
atom    2   Tr[ns(na)] (up, down, total) =   4.95331  3.64051  8.59382
   spin  1
    eigenvalues: 
  0.983  0.983  0.996  0.996  0.996
    eigenvectors:
  0.250  0.750  0.000  0.000  0.000
  0.000  0.000  0.333  0.167  0.500
  0.000  0.000  0.334  0.666  0.000
  0.750  0.250  0.000  0.000  0.000
  0.000  0.000  0.333  0.167  0.500
    occupations:
  0.983 -0.000 -0.000  0.000 -0.000
 -0.000  0.996 -0.000 -0.000  0.000
 -0.000 -0.000  0.996  0.000  0.000
  0.000 -0.000  0.000  0.983  0.000
 -0.000  0.000  0.000  0.000  0.996
   spin  2
    eigenvalues: 
  0.332  0.332  0.992  0.992  0.992
    eigenvectors:
  0.750  0.250  0.000  0.000  0.000
  0.000  0.000  0.500  0.167  0.333
  0.000  0.000  0.000  0.667  0.333
  0.250  0.750  0.000  0.000  0.000
  0.000  0.000  0.500  0.167  0.333
    occupations:
  0.332  0.001  0.001 -0.000  0.001
  0.001  0.992  0.000  0.001 -0.000
  0.001  0.000  0.992 -0.001 -0.000
 -0.000  0.001 -0.001  0.332 -0.000
  0.001 -0.000 -0.000 -0.000  0.992
atomic mag. moment =   1.31281
atom    3   Tr[ns(na)] (up, down, total) =   4.95331  3.64051  8.59382
   spin  1
    eigenvalues: 
  0.983  0.983  0.996  0.996  0.996
    eigenvectors:
  0.250  0.750  0.000  0.000  0.000
  0.000  0.000  0.334  0.666  0.000
  0.000  0.000  0.333  0.167  0.500
  0.750  0.250  0.000  0.000  0.000
  0.000  0.000  0.333  0.167  0.500
    occupations:
  0.983 -0.000 -0.000 -0.000 -0.000
 -0.000  0.996 -0.000 -0.000  0.000
 -0.000 -0.000  0.996  0.000  0.000
 -0.000 -0.000  0.000  0.983 -0.000
 -0.000  0.000  0.000 -0.000  0.996
   spin  2
    eigenvalues: 
  0.332  0.332  0.992  0.992  0.992
    eigenvectors:
  0.750  0.250  0.000  0.000  0.000
  0.000  0.000  0.000  0.667  0.333
  0.000  0.000  0.500  0.167  0.333
  0.250  0.750  0.000  0.000  0.000
  0.000  0.000  0.500  0.167  0.333
    occupations:
  0.332  0.001  0.001  0.000  0.001
  0.001  0.992  0.000  0.001 -0.000
  0.001  0.000  0.992 -0.001 -0.000
  0.000  0.001 -0.001  0.332  0.000
  0.001 -0.000 -0.000  0.000  0.992
atomic mag. moment =   1.31281
atom    4   Tr[ns(na)] (up, down, total) =   4.95331  3.64051  8.59382
   spin  1
    eigenvalues: 
  0.983  0.983  0.996  0.996  0.996
    eigenvectors:
  1.000  0.000  0.000  0.000  0.000
  0.000  0.000  0.333  0.167  0.500
  0.000  0.000  0.333  0.167  0.500
  0.000  1.000  0.000  0.000  0.000
  0.000  0.000  0.334  0.666  0.000
    occupations:
  0.983 -0.000 -0.000  0.000 -0.000
 -0.000  0.996 -0.000 -0.000  0.000
 -0.000 -0.000  0.996  0.000  0.000
  0.000 -0.000  0.000  0.983 -0.000
 -0.000  0.000  0.000 -0.000  0.996
   spin  2
    eigenvalues: 
  0.332  0.332  0.992  0.992  0.992
    eigenvectors:
  0.000  1.000  0.000  0.000  0.000
  0.000  0.000  0.500  0.167  0.333
  0.000  0.000  0.500  0.167  0.333
  1.000  0.000  0.000  0.000  0.000
  0.000  0.000  0.000  0.667  0.333
    occupations:
  0.332  0.001  0.001  0.000  0.001
  0.001  0.992  0.000  0.001 -0.000
  0.001  0.000  0.992 -0.001 -0.000
  0.000  0.001 -0.001  0.332 -0.000
  0.001 -0.000 -0.000 -0.000  0.992
atomic mag. moment =   1.31281
atom    5   Tr[ns(na)] (up, down, total) =   3.64051  4.95331  8.59382
   spin  1
    eigenvalues: 
  0.332  0.332  0.992  0.992  0.992
    eigenvectors:
  0.000  1.000  0.000  0.000  0.000
  0.000  0.000  0.167  0.500  0.333
  0.000  0.000  0.167  0.500  0.333
  1.000  0.000  0.000  0.000  0.000
  0.000  0.000  0.667  0.000  0.333
    occupations:
  0.332  0.001  0.001  0.000  0.001
  0.001  0.992  0.000  0.001 -0.000
  0.001  0.000  0.992 -0.001 -0.000
  0.000  0.001 -0.001  0.332 -0.000
  0.001 -0.000 -0.000 -0.000  0.992
   spin  2
    eigenvalues: 
  0.983  0.983  0.996  0.996  0.996
    eigenvectors:
  0.000  1.000  0.000  0.000  0.000
  0.000  0.000  0.333  0.500  0.167
  0.000  0.000  0.333  0.500  0.167
  1.000  0.000  0.000  0.000  0.000
  0.000  0.000  0.333  0.000  0.667
    occupations:
  0.983 -0.000 -0.000  0.000 -0.000
 -0.000  0.996 -0.000 -0.000  0.000
 -0.000 -0.000  0.996  0.000  0.000
  0.000 -0.000  0.000  0.983 -0.000
 -0.000  0.000  0.000 -0.000  0.996
atomic mag. moment =  -1.31280
atom    6   Tr[ns(na)] (up, down, total) =   3.64051  4.95331  8.59382
   spin  1
    eigenvalues: 
  0.332  0.332  0.992  0.992  0.992
    eigenvectors:
  0.750  0.250  0.000  0.000  0.000
  0.000  0.000  0.667  0.000  0.333
  0.000  0.000  0.167  0.500  0.333
  0.250  0.750  0.000  0.000  0.000
  0.000  0.000  0.167  0.500  0.333
    occupations:
  0.332  0.001  0.001  0.000  0.001
  0.001  0.992  0.000  0.001 -0.000
  0.001  0.000  0.992 -0.001 -0.000
  0.000  0.001 -0.001  0.332  0.000
  0.001 -0.000 -0.000  0.000  0.992
   spin  2
    eigenvalues: 
  0.983  0.983  0.996  0.996  0.996
    eigenvectors:
  0.750  0.250  0.000  0.000  0.000
  0.000  0.000  0.333  0.000  0.667
  0.000  0.000  0.333  0.500  0.167
  0.250  0.750  0.000  0.000  0.000
  0.000  0.000  0.333  0.500  0.167
    occupations:
  0.983 -0.000 -0.000  0.000 -0.000
 -0.000  0.996 -0.000 -0.000  0.000
 -0.000 -0.000  0.996  0.000  0.000
  0.000 -0.000  0.000  0.983 -0.000
 -0.000  0.000  0.000 -0.000  0.996
atomic mag. moment =  -1.31280
atom    7   Tr[ns(na)] (up, down, total) =   3.64051  4.95331  8.59382
   spin  1
    eigenvalues: 
  0.332  0.332  0.992  0.992  0.992
    eigenvectors:
  0.750  0.250  0.000  0.000  0.000
  0.000  0.000  0.167  0.500  0.333
  0.000  0.000  0.667  0.000  0.333
  0.250  0.750  0.000  0.000  0.000
  0.000  0.000  0.167  0.500  0.333
    occupations:
  0.332  0.001  0.001 -0.000  0.001
  0.001  0.992  0.000  0.001 -0.000
  0.001  0.000  0.992 -0.001 -0.000
 -0.000  0.001 -0.001  0.332 -0.000
  0.001 -0.000 -0.000 -0.000  0.992
   spin  2
    eigenvalues: 
  0.983  0.983  0.996  0.996  0.996
    eigenvectors:
  0.750  0.250  0.000  0.000  0.000
  0.000  0.000  0.333  0.500  0.167
  0.000  0.000  0.333  0.000  0.667
  0.250  0.750  0.000  0.000  0.000
  0.000  0.000  0.333  0.500  0.167
    occupations:
  0.983 -0.000 -0.000 -0.000 -0.000
 -0.000  0.996 -0.000 -0.000  0.000
 -0.000 -0.000  0.996  0.000  0.000
 -0.000 -0.000  0.000  0.983  0.000
 -0.000  0.000  0.000  0.000  0.996
atomic mag. moment =  -1.31280
atom    8   Tr[ns(na)] (up, down, total) =   3.64051  4.95331  8.59383
   spin  1
    eigenvalues: 
  0.332  0.332  0.992  0.992  0.992
    eigenvectors:
  0.209  0.791  0.000  0.000  0.000
  0.000  0.000  0.006  0.661  0.333
  0.000  0.000  0.551  0.116  0.333
  0.791  0.209  0.000  0.000  0.000
  0.000  0.000  0.443  0.223  0.333
    occupations:
  0.332  0.001  0.001  0.000  0.001
  0.001  0.992  0.000  0.001 -0.000
  0.001  0.000  0.992 -0.001 -0.000
  0.000  0.001 -0.001  0.332 -0.000
  0.001 -0.000 -0.000 -0.000  0.992
   spin  2
    eigenvalues: 
  0.983  0.983  0.996  0.996  0.996
    eigenvectors:
  0.040  0.960  0.000  0.000  0.000
  0.000  0.000  0.333  0.030  0.636
  0.000  0.000  0.333  0.365  0.302
  0.960  0.040  0.000  0.000  0.000
  0.000  0.000  0.333  0.605  0.062
    occupations:
  0.983 -0.000 -0.000  0.000 -0.000
 -0.000  0.996 -0.000 -0.000  0.000
 -0.000 -0.000  0.996  0.000  0.000
  0.000 -0.000  0.000  0.983 -0.000
 -0.000  0.000  0.000 -0.000  0.996
atomic mag. moment =  -1.31280
atom    9   Tr[ns(na)] (up, down, total) =   2.76393  2.76393  5.52786
   spin  1
    eigenvalues: 
  0.921  0.921  0.921
    eigenvectors:
  0.667  0.000  0.333
  0.166  0.500  0.334
  0.166  0.500  0.334
    occupations:
  0.921 -0.000 -0.000
 -0.000  0.921  0.000
 -0.000  0.000  0.921
   spin  2
    eigenvalues: 
  0.921  0.921  0.921
    eigenvectors:
  0.000  0.666  0.334
  0.500  0.167  0.333
  0.500  0.167  0.333
    occupations:
  0.921 -0.000 -0.000
 -0.000  0.921  0.000
 -0.000  0.000  0.921
atomic mag. moment =  -0.00000
atom   10   Tr[ns(na)] (up, down, total) =   2.76393  2.76393  5.52786
   spin  1
    eigenvalues: 
  0.921  0.921  0.921
    eigenvectors:
  0.625  0.041  0.333
  0.327  0.340  0.333
  0.048  0.619  0.333
    occupations:
  0.921 -0.000 -0.000
 -0.000  0.921  0.000
 -0.000  0.000  0.921
   spin  2
    eigenvalues: 
  0.921  0.921  0.921
    eigenvectors:
  0.620  0.047  0.333
  0.337  0.329  0.333
  0.043  0.624  0.333
    occupations:
  0.921 -0.000 -0.000
 -0.000  0.921  0.000
 -0.000  0.000  0.921
atomic mag. moment =  -0.00000
atom   11   Tr[ns(na)] (up, down, total) =   2.76393  2.76393  5.52786
   spin  1
    eigenvalues: 
  0.921  0.921  0.921
    eigenvectors:
  0.166  0.500  0.334
  0.166  0.500  0.334
  0.667  0.000  0.333
    occupations:
  0.921 -0.000 -0.000
 -0.000  0.921  0.000
 -0.000  0.000  0.921
   spin  2
    eigenvalues: 
  0.921  0.921  0.921
    eigenvectors:
  0.500  0.167  0.333
  0.500  0.167  0.333
  0.000  0.666  0.334
    occupations:
  0.921 -0.000 -0.000
 -0.000  0.921  0.000
 -0.000  0.000  0.921
atomic mag. moment =  -0.00000
atom   12   Tr[ns(na)] (up, down, total) =   2.76393  2.76393  5.52786
   spin  1
    eigenvalues: 
  0.921  0.921  0.921
    eigenvectors:
  0.166  0.500  0.334
  0.667  0.000  0.333
  0.166  0.500  0.334
    occupations:
  0.921 -0.000 -0.000
 -0.000  0.921  0.000
 -0.000  0.000  0.921
   spin  2
    eigenvalues: 
  0.921  0.921  0.921
    eigenvectors:
  0.500  0.167  0.333
  0.000  0.666  0.334
  0.500  0.167  0.333
    occupations:
  0.921 -0.000 -0.000
 -0.000  0.921  0.000
 -0.000  0.000  0.921
atomic mag. moment =  -0.00000
atom   13   Tr[ns(na)] (up, down, total) =   2.76393  2.76393  5.52786
   spin  1
    eigenvalues: 
  0.921  0.921  0.921
    eigenvectors:
  0.166  0.500  0.334
  0.166  0.500  0.334
  0.667  0.000  0.333
    occupations:
  0.921 -0.000 -0.000
 -0.000  0.921  0.000
 -0.000  0.000  0.921
   spin  2
    eigenvalues: 
  0.921  0.921  0.921
    eigenvectors:
  0.500  0.167  0.333
  0.500  0.167  0.333
  0.000  0.666  0.334
    occupations:
  0.921 -0.000 -0.000
 -0.000  0.921  0.000
 -0.000  0.000  0.921
atomic mag. moment =  -0.00000
atom   14   Tr[ns(na)] (up, down, total) =   2.76393  2.76393  5.52786
   spin  1
    eigenvalues: 
  0.921  0.921  0.921
    eigenvectors:
  0.166  0.500  0.334
  0.667  0.000  0.333
  0.166  0.500  0.334
    occupations:
  0.921 -0.000 -0.000
 -0.000  0.921  0.000
 -0.000  0.000  0.921
   spin  2
    eigenvalues: 
  0.921  0.921  0.921
    eigenvectors:
  0.500  0.167  0.333
  0.000  0.666  0.334
  0.500  0.167  0.333
    occupations:
  0.921 -0.000 -0.000
 -0.000  0.921  0.000
 -0.000  0.000  0.921
atomic mag. moment =  -0.00000
atom   15   Tr[ns(na)] (up, down, total) =   2.76393  2.76393  5.52786
   spin  1
    eigenvalues: 
  0.921  0.921  0.921
    eigenvectors:
  0.617  0.050  0.333
  0.344  0.323  0.333
  0.039  0.627  0.333
    occupations:
  0.921 -0.000 -0.000
 -0.000  0.921  0.000
 -0.000  0.000  0.921
   spin  2
    eigenvalues: 
  0.921  0.921  0.921
    eigenvectors:
  0.620  0.047  0.333
  0.337  0.329  0.333
  0.043  0.624  0.333
    occupations:
  0.921 -0.000 -0.000
 -0.000  0.921  0.000
 -0.000  0.000  0.921
atomic mag. moment =  -0.00000
atom   16   Tr[ns(na)] (up, down, total) =   2.76393  2.76393  5.52786
   spin  1
    eigenvalues: 
  0.921  0.921  0.921
    eigenvectors:
  0.667  0.000  0.333
  0.166  0.500  0.334
  0.166  0.500  0.334
    occupations:
  0.921 -0.000 -0.000
 -0.000  0.921  0.000
 -0.000  0.000  0.921
   spin  2
    eigenvalues: 
  0.921  0.921  0.921
    eigenvectors:
  0.000  0.666  0.334
  0.500  0.167  0.333
  0.500  0.167  0.333
    occupations:
  0.921 -0.000 -0.000
 -0.000  0.921  0.000
 -0.000  0.000  0.921
atomic mag. moment =  -0.00000
N of occupied +U levels =  112.973446
 --- exit write_ns ---
 Atomic wfc used for LDA+U Projector are NOT orthogonalized
     Starting wfcs from file

     Band Structure Calculation
     Davidson diagonalization with overlap

     ethr =  5.21E-12,  avg # of iterations = 33.4
 In >  weights
 tfixed_occ .OR. ltetra F F T

     total cpu time spent up to now is        4.8 secs

     End of band structure calculation

 ------ SPIN UP ------------


          k = 0.0000 0.0000 0.0000 ( 11935 PWs)   bands (ev):

   -89.7148 -89.7133 -89.7132 -89.7132 -88.1072 -88.1056 -88.1056 -88.1056
   -50.1656 -50.1634 -50.1634 -50.1634 -50.1627 -50.1627 -50.1627 -50.1461
   -50.1461 -50.1461 -50.1397 -50.1397 -48.4285 -48.4285 -48.4285 -48.4205
   -48.4177 -48.4177 -48.4176 -48.4095 -48.4094 -48.4094 -48.4025 -48.4025
    -5.5114  -4.1132  -4.1130  -4.1130  -4.1130  -4.0540  -4.0504  -4.0504
     6.5729   6.5774   6.5774   6.5785   7.8629   7.8629   7.8629   9.0954
     9.0954   9.1007   9.1129   9.1129   9.1323   9.1544   9.1544  10.5095
    10.5095  10.5095  10.5108  10.5108  10.5108  11.4102  11.4102  11.4126
    11.8239  11.8239  11.8262  12.1566  12.1566  12.2854  12.4669  12.4669
    12.5246  12.5549  12.5549  12.8230  12.8230  12.8411  13.0689  13.0913
    13.0913  13.1994  13.2023  13.2023  13.5019  13.5019  13.6302  13.6363
    13.6363  13.7668  13.8516  13.8520  13.8520  13.9692  13.9697  13.9697
    16.1404  16.1404  16.1984  16.2005  16.2005  16.2805  16.2816  16.2816
    16.2913  20.2727  20.2747  20.2747  20.2747  20.9312  20.9312  20.9312
    24.7620  24.7620  24.7620  24.7624  25.2864  25.2864  25.2864  26.9381

          k = 0.2500-0.2500-0.2500 ( 11900 PWs)   bands (ev):

   -89.7140 -89.7140 -89.7132 -89.7132 -88.1064 -88.1063 -88.1055 -88.1055
   -50.1637 -50.1637 -50.1624 -50.1624 -50.1584 -50.1584 -50.1518 -50.1517
   -50.1503 -50.1503 -50.1426 -50.1425 -48.4232 -48.4232 -48.4188 -48.4188
   -48.4174 -48.4173 -48.4159 -48.4158 -48.4142 -48.4142 -48.4057 -48.4057
    -4.8752  -4.8752  -4.0952  -4.0916  -4.0907  -4.0890  -4.0860  -4.0841
     7.5910   7.5977   7.6054   7.6102   7.6176   7.6219   8.6445   8.6506
     8.8780   8.8939   8.9436   8.9578   9.0206   9.0361   9.4197   9.4447
     9.5745   9.5880   9.8774   9.8824  10.0533  10.0640  10.2075  10.2138
    12.2068  12.2490  12.3908  12.4252  12.4615  12.4847  12.5991  12.6449
    12.7338  12.7736  12.7999  12.8440  13.1145  13.1391  13.2254  13.2373
    13.2397  13.2491  13.4509  13.4763  13.5456  13.5664  13.8276  13.8361
    13.8373  13.8436  13.8817  13.8909  13.9161  13.9166  14.0179  14.0272
    15.6299  15.6301  15.6356  15.6357  15.6422  15.6423  15.6531  15.6531
    19.0135  19.0137  22.1916  22.1917  22.2387  22.2388  22.2852  22.2852
    24.4584  24.4585  24.5026  24.5027  24.5495  24.5496  26.3496  26.3497

          k = 0.0000 0.0000-0.5000 ( 11854 PWs)   bands (ev):

   -89.7140 -89.7140 -89.7130 -89.7130 -88.1064 -88.1063 -88.1053 -88.1053
   -50.1640 -50.1639 -50.1619 -50.1619 -50.1580 -50.1580 -50.1514 -50.1514
   -50.1495 -50.1495 -50.1427 -50.1427 -48.4228 -48.4228 -48.4191 -48.4190
   -48.4168 -48.4167 -48.4155 -48.4155 -48.4134 -48.4133 -48.4058 -48.4058
    -4.7399  -4.7388  -4.2434  -4.2433  -4.2432  -4.2411  -3.9431  -3.9396
     7.5657   7.5750   7.5759   7.5848   8.3241   8.3314   8.6416   8.6451
     8.6472   8.6500   8.9663   8.9774   9.2189   9.2299   9.2501   9.2699
     9.2761   9.2790   9.2795   9.2853  10.7094  10.7166  10.7181  10.7238
    11.8170  11.8530  12.5288  12.5532  12.6098  12.6206  12.6347  12.6542
    12.6574  12.6624  12.7452  12.7770  12.9260  12.9691  13.0747  13.1094
    13.1159  13.1361  13.1583  13.1963  13.4935  13.4938  13.5867  13.5989
    13.7312  13.7334  13.8089  13.8110  13.9224  13.9230  13.9239  13.9240
    15.0480  15.0482  15.3114  15.3119  16.1114  16.1143  16.2107  16.2126
    20.2168  20.2170  21.7728  21.7728  21.7729  21.7729  23.2935  23.2937
    25.3870  25.3871  25.3887  25.3888  25.6769  25.6769  25.6816  25.6816

          k =-0.2500-0.2500-0.2500 ( 11900 PWs)   bands (ev):

   -89.7148 -89.7132 -89.7132 -89.7132 -88.1072 -88.1055 -88.1055 -88.1054
   -50.1659 -50.1629 -50.1628 -50.1628 -50.1626 -50.1626 -50.1626 -50.1456
   -50.1456 -50.1456 -50.1395 -50.1395 -48.4280 -48.4279 -48.4279 -48.4214
   -48.4178 -48.4178 -48.4177 -48.4091 -48.4091 -48.4091 -48.4023 -48.4023
    -4.8778  -4.8727  -4.1009  -4.0973  -4.0973  -4.0802  -4.0802  -4.0802
     7.5592   7.5635   7.5635   7.6523   7.6523   7.6523   8.6330   8.6648
     8.8141   8.8243   8.8243   9.2427   9.2427   9.2427   9.3131   9.3315
     9.3315   9.5629   9.5629  10.0144  10.0144  10.0144  10.4369  10.4369
    12.0800  12.0800  12.0962  12.2728  12.2728  12.6985  12.7091  12.7322
    12.7322  13.0257  13.0257  13.0257  13.1047  13.1047  13.1097  13.3091
    13.3091  13.4359  13.4404  13.4404  13.4476  13.6378  13.6577  13.6577
    13.8320  13.8320  13.8320  13.8949  13.8949  13.9872  13.9872  13.9872
    15.6312  15.6312  15.6312  15.6475  15.6475  15.6598  15.6598  15.6598
    18.9467  19.0819  22.1669  22.1670  22.1670  22.3089  22.3089  22.3089
    24.4438  24.4438  24.4438  24.5664  24.5664  24.5664  26.3372  26.3373

 ------ SPIN DOWN ----------


          k = 0.0000 0.0000 0.0000 ( 11935 PWs)   bands (ev):

   -89.7145 -89.7130 -89.7130 -89.7129 -88.1075 -88.1059 -88.1058 -88.1058
   -50.1653 -50.1632 -50.1632 -50.1632 -50.1625 -50.1625 -50.1624 -50.1459
   -50.1458 -50.1458 -50.1395 -50.1395 -48.4288 -48.4288 -48.4287 -48.4207
   -48.4179 -48.4179 -48.4179 -48.4097 -48.4097 -48.4097 -48.4027 -48.4027
    -5.5114  -4.1132  -4.1130  -4.1130  -4.1130  -4.0540  -4.0508  -4.0508
     6.5729   6.5767   6.5767   6.5779   7.8629   7.8629   7.8629   9.0934
     9.0934   9.1007   9.1059   9.1059   9.1315   9.1364   9.1364  10.5095
    10.5095  10.5095  10.5108  10.5108  10.5108  11.4015  11.4026  11.4026
    11.8239  11.8239  11.8262  12.1374  12.1374  12.2741  12.4698  12.4698
    12.5247  12.5303  12.5303  12.8140  12.8140  12.8169  13.0691  13.0755
    13.0755  13.1846  13.1846  13.1895  13.5155  13.5155  13.6390  13.6410
    13.6410  13.7781  13.8515  13.8827  13.8827  13.9914  13.9914  14.0067
    16.1470  16.1470  16.1983  16.2154  16.2154  16.2806  16.2913  16.3081
    16.3081  20.2727  20.2747  20.2747  20.2747  20.9312  20.9312  20.9312
    24.7620  24.7620  24.7620  24.7624  25.2864  25.2864  25.2864  26.9382

          k = 0.2500-0.2500-0.2500 ( 11900 PWs)   bands (ev):

   -89.7138 -89.7137 -89.7129 -89.7129 -88.1066 -88.1066 -88.1057 -88.1057
   -50.1635 -50.1635 -50.1622 -50.1621 -50.1582 -50.1581 -50.1515 -50.1515
   -50.1501 -50.1500 -50.1423 -50.1423 -48.4235 -48.4234 -48.4190 -48.4190
   -48.4176 -48.4176 -48.4161 -48.4161 -48.4144 -48.4144 -48.4060 -48.4059
    -4.8752  -4.8752  -4.0952  -4.0944  -4.0907  -4.0882  -4.0860  -4.0828
     7.5910   7.5936   7.6054   7.6095   7.6176   7.6226   8.6445   8.6490
     8.8781   8.8812   8.9437   8.9471   9.0206   9.0257   9.4198   9.4214
     9.5745   9.5807   9.8774   9.8883  10.0533  10.0654  10.2075  10.2200
    12.2070  12.2089  12.3910  12.3975  12.4616  12.4740  12.5993  12.6063
    12.7339  12.7399  12.8001  12.8016  13.1146  13.1227  13.2254  13.2372
    13.2440  13.2764  13.4510  13.4594  13.5457  13.5555  13.8276  13.8360
    13.8436  13.8617  13.8816  13.9159  13.9240  13.9629  14.0179  14.0446
    15.6297  15.6351  15.6354  15.6420  15.6440  15.6529  15.7076  15.7154
    19.0135  19.0137  22.1917  22.1918  22.2387  22.2388  22.2851  22.2852
    24.4585  24.4586  24.5026  24.5027  24.5495  24.5496  26.3496  26.3497

          k = 0.0000 0.0000-0.5000 ( 11854 PWs)   bands (ev):

   -89.7138 -89.7137 -89.7128 -89.7127 -88.1066 -88.1066 -88.1056 -88.1056
   -50.1637 -50.1637 -50.1616 -50.1616 -50.1578 -50.1578 -50.1512 -50.1511
   -50.1493 -50.1492 -50.1425 -50.1424 -48.4230 -48.4230 -48.4193 -48.4193
   -48.4170 -48.4170 -48.4158 -48.4157 -48.4136 -48.4135 -48.4060 -48.4060
    -4.7400  -4.7389  -4.2434  -4.2433  -4.2432  -4.2412  -3.9431  -3.9399
     7.5657   7.5694   7.5759   7.5808   8.3241   8.3299   8.6416   8.6448
     8.6451   8.6488   8.9663   8.9723   9.2190   9.2237   9.2501   9.2584
     9.2699   9.2760   9.2761   9.2833  10.7094  10.7131  10.7181  10.7228
    11.8171  11.8301  12.5289  12.5339  12.6100  12.6135  12.6208  12.6217
    12.6347  12.6503  12.7454  12.7502  12.9261  12.9295  13.0749  13.0757
    13.1095  13.1219  13.1585  13.1587  13.4934  13.5343  13.5866  13.6137
    13.7310  13.7549  13.8087  13.8621  13.9222  13.9238  13.9666  13.9702
    15.0478  15.0816  15.3112  15.3544  16.1113  16.1310  16.2106  16.2464
    20.2168  20.2178  21.7728  21.7729  21.7729  21.7732  23.2935  23.2938
    25.3870  25.3871  25.3887  25.3888  25.6769  25.6770  25.6816  25.6817

          k =-0.2500-0.2500-0.2500 ( 11900 PWs)   bands (ev):

   -89.7146 -89.7130 -89.7130 -89.7129 -88.1075 -88.1058 -88.1057 -88.1057
   -50.1657 -50.1626 -50.1626 -50.1626 -50.1623 -50.1623 -50.1623 -50.1454
   -50.1454 -50.1454 -50.1392 -50.1392 -48.4282 -48.4282 -48.4282 -48.4216
   -48.4180 -48.4180 -48.4180 -48.4094 -48.4094 -48.4093 -48.4026 -48.4026
    -4.8779  -4.8727  -4.1009  -4.1009  -4.1009  -4.0802  -4.0770  -4.0770
     7.5571   7.5571   7.5571   7.6540   7.6576   7.6576   8.6272   8.6695
     8.8111   8.8111   8.8111   9.2461   9.2510   9.2510   9.3132   9.3132
     9.3132   9.5466   9.5466  10.0143  10.0248  10.0248  10.4460  10.4460
    12.0642  12.0642  12.0642  12.2481  12.2481  12.6903  12.6987  12.6987
    12.6987  13.0416  13.0416  13.0547  13.0844  13.0844  13.0844  13.3324
    13.3324  13.4244  13.4244  13.4244  13.4681  13.6379  13.6380  13.6380
    13.8318  13.8649  13.8649  13.8846  13.8846  14.0061  14.0061  14.0259
    15.6310  15.6384  15.6384  15.6521  15.6521  15.6603  15.7185  15.7185
    18.9466  19.0820  22.1669  22.1669  22.1669  22.3090  22.3090  22.3090
    24.4437  24.4437  24.4437  24.5665  24.5665  24.5665  26.3372  26.3372

     the Fermi energy is    14.5429 ev
     (compare with:    14.5339 eV, computed in scf)

     Writing output data file ./pwscf.save/
 
     init_run     :      0.24s CPU      0.68s WALL (       1 calls)
     electrons    :      2.92s CPU      3.07s WALL (       1 calls)

     Called by init_run:
     wfcinit      :      0.11s CPU      0.33s WALL (       1 calls)
     potinit      :      0.03s CPU      0.15s WALL (       1 calls)
     hinit0       :      0.05s CPU      0.09s WALL (       1 calls)

     Called by electrons:
     c_bands      :      2.92s CPU      3.06s WALL (       1 calls)
     v_of_rho     :      0.02s CPU      0.04s WALL (       1 calls)

     Called by c_bands:
     init_us_2    :      0.01s CPU      0.01s WALL (       4 calls)
     cegterg      :      1.50s CPU      1.62s WALL (       4 calls)

     Called by *egterg:
     cdiaghg      :      0.66s CPU      0.75s WALL (      50 calls)
     h_psi        :      0.58s CPU      0.60s WALL (      54 calls)
     g_psi        :      0.00s CPU      0.00s WALL (      50 calls)

     Called by h_psi:
     h_psi:calbec :      0.07s CPU      0.07s WALL (      54 calls)
     vloc_psi     :      0.37s CPU      0.37s WALL (      54 calls)
     add_vuspsi   :      0.07s CPU      0.08s WALL (      54 calls)
     vhpsi        :      0.06s CPU      0.07s WALL (      54 calls)

     General routines
     calbec       :      0.11s CPU      0.13s WALL (     110 calls)
     fft          :      0.01s CPU      0.03s WALL (      19 calls)
     fftw         :      0.32s CPU      0.33s WALL (    2956 calls)
     davcio       :      0.00s CPU      0.02s WALL (      12 calls)
 
     Parallel routines
     fft_scatt_xy :      0.09s CPU      0.09s WALL (    2975 calls)
     fft_scatt_yz :      0.13s CPU      0.13s WALL (    2975 calls)

     Hubbard U routines
     vhpsi        :      0.06s CPU      0.07s WALL (      54 calls)
 
     PWSCF        :      3.76s CPU      4.95s WALL

 
   This run was terminated on:  14:25:13   8Sep2023            

=------------------------------------------------------------------------------=
   JOB DONE.
=------------------------------------------------------------------------------=
