
     Program PWSCF v.6.6 starts on  8Sep2023 at 14:25:40 

     This program is part of the open-source Quantum ESPRESSO suite
     for quantum simulation of materials; please cite
         "P. Giannozzi et al., J. Phys.:Condens. Matter 21 395502 (2009);
         "P. Giannozzi et al., J. Phys.:Condens. Matter 29 465901 (2017);
          URL http://www.quantum-espresso.org", 
     in publications or presentations arising from this work. More details at
     http://www.quantum-espresso.org/quote

     Parallel version (MPI), running on     1 processors

     MPI processes distributed on     1 nodes
     Fft bands division:     nmany     =       1
     Reading input from input.in
     Message from routine read_cards :
     DEPRECATED: no units specified in CELL_PARAMETERS card

     Current dimensions of program PWSCF are:
     Max number of different atomic species (ntypx) = 10
     Max number of k-points (npk) =  40000
     Max angular momentum in pseudopotentials (lmaxx) =  3
     Message from routine volume:
     axis vectors are left-handed

     Subspace diagonalization in iterative solution of the eigenvalue problem:
     a serial algorithm will be used

     Message from routine setup:
     using ibrav=0 with symmetry is DISCOURAGED, use correct ibrav instead
 
     G-vector sticks info
     --------------------
     sticks:   dense  smooth     PW     G-vecs:    dense   smooth      PW
     Sum        2749    2749    745                95097    95097   13539
 


     bravais-lattice index     =            0
     lattice parameter (alat)  =       7.9000  a.u.
     unit-cell volume          =     986.0780 (a.u.)^3
     number of atoms/cell      =           16
     number of atomic types    =            4
     number of electrons       =       192.00
     number of Kohn-Sham states=          120
     kinetic-energy cutoff     =      80.0000  Ry
     charge density cutoff     =     320.0000  Ry
     Exchange-correlation= PBE
                           (   1   4   3   4   0   0   0)

     celldm(1)=   7.900000  celldm(2)=   0.000000  celldm(3)=   0.000000
     celldm(4)=   0.000000  celldm(5)=   0.000000  celldm(6)=   0.000000

     crystal axes: (cart. coord. in units of alat)
               a(1) = (   1.000000   1.000000   0.000000 )  
               a(2) = (   1.000000   0.000000   1.000000 )  
               a(3) = (   0.000000   1.000000   1.000000 )  

     reciprocal axes: (cart. coord. in units 2 pi/alat)
               b(1) = (  0.500000  0.500000 -0.500000 )  
               b(2) = (  0.500000 -0.500000  0.500000 )  
               b(3) = ( -0.500000  0.500000  0.500000 )  


     PseudoPot. # 1 for Ni read from file:
     ../input/Ni_ONCV_PBE_fr.upf
     MD5 check sum: 1d6d985dc8681998a6b21bb9c8828dba
     Pseudo is Norm-conserving + core correction, Zval = 18.0
     Generated using ONCVPSP code by D. R. Hamann
     Using radial grid of 1372 points,  6 beta functions with: 
                l(1) =   0
                l(2) =   0
                l(3) =   1
                l(4) =   1
                l(5) =   2
                l(6) =   2

     PseudoPot. # 2 for Ni read from file:
     ../input/Ni_ONCV_PBE_fr.upf
     MD5 check sum: 1d6d985dc8681998a6b21bb9c8828dba
     Pseudo is Norm-conserving + core correction, Zval = 18.0
     Generated using ONCVPSP code by D. R. Hamann
     Using radial grid of 1372 points,  6 beta functions with: 
                l(1) =   0
                l(2) =   0
                l(3) =   1
                l(4) =   1
                l(5) =   2
                l(6) =   2

     PseudoPot. # 3 for Ni read from file:
     ../input/Ni_ONCV_PBE_fr.upf
     MD5 check sum: 1d6d985dc8681998a6b21bb9c8828dba
     Pseudo is Norm-conserving + core correction, Zval = 18.0
     Generated using ONCVPSP code by D. R. Hamann
     Using radial grid of 1372 points,  6 beta functions with: 
                l(1) =   0
                l(2) =   0
                l(3) =   1
                l(4) =   1
                l(5) =   2
                l(6) =   2

     PseudoPot. # 4 for O  read from file:
     ../input/O_ONCV_PBE_fr.upf
     MD5 check sum: cce762a7abf7b05e8b0c1bb572795511
     Pseudo is Norm-conserving + core correction, Zval =  6.0
     Generated using ONCVPSP code by D. R. Hamann
     Using radial grid of  936 points,  5 beta functions with: 
                l(1) =   0
                l(2) =   0
                l(3) =   1
                l(4) =   1
                l(5) =   2

     atomic species   valence    mass     pseudopotential
        Ni1           18.00     1.00000     Ni( 1.00)
        Ni2           18.00     1.00000     Ni( 1.00)
        Ni3           18.00     1.00000     Ni( 1.00)
        O1             6.00     1.00000     O ( 1.00)

     Starting magnetic structure 
     atomic species   magnetization
        Ni1          0.500
        Ni2          0.500
        Ni3         -0.500
        O1           0.000


     Simplified LDA+U calculation (l_max = 2) with parameters (eV):
     atomic species    L          U    alpha       J0     beta
        Ni1            2     0.0000   0.1000   0.0000   0.0000
        Ni2            2     0.0000   0.0000   0.0000   0.0000
        Ni3            2     0.0000   0.0000   0.0000   0.0000
        O1             1     0.0000   0.0000   0.0000   0.0000



     12 Sym. Ops., with inversion, found


                                    s                        frac. trans.

      isym =  1     identity                                     

 cryst.   s( 1) = (     1          0          0      )
                  (     0          1          0      )
                  (     0          0          1      )

 cart.    s( 1) = (  1.0000000  0.0000000  0.0000000 )
                  (  0.0000000  1.0000000  0.0000000 )
                  (  0.0000000  0.0000000  1.0000000 )


      isym =  2     180 deg rotation - cart. axis [1,-1,0]       

 cryst.   s( 2) = (    -1          0          0      )
                  (     0          0         -1      )
                  (     0         -1          0      )

 cart.    s( 2) = (  0.0000000 -1.0000000  0.0000000 )
                  ( -1.0000000  0.0000000  0.0000000 )
                  (  0.0000000  0.0000000 -1.0000000 )


      isym =  3     180 deg rotation - cart. axis [-1,0,1]       

 cryst.   s( 3) = (     0          0         -1      )
                  (     0         -1          0      )
                  (    -1          0          0      )

 cart.    s( 3) = (  0.0000000  0.0000000 -1.0000000 )
                  (  0.0000000 -1.0000000  0.0000000 )
                  ( -1.0000000  0.0000000  0.0000000 )


      isym =  4     180 deg rotation - cart. axis [0,1,-1]       

 cryst.   s( 4) = (     0         -1          0      )
                  (    -1          0          0      )
                  (     0          0         -1      )

 cart.    s( 4) = ( -1.0000000  0.0000000  0.0000000 )
                  (  0.0000000  0.0000000 -1.0000000 )
                  (  0.0000000 -1.0000000  0.0000000 )


      isym =  5     120 deg rotation - cart. axis [-1,-1,-1]     

 cryst.   s( 5) = (     0          1          0      )
                  (     0          0          1      )
                  (     1          0          0      )

 cart.    s( 5) = (  0.0000000  1.0000000  0.0000000 )
                  (  0.0000000  0.0000000  1.0000000 )
                  (  1.0000000  0.0000000  0.0000000 )


      isym =  6     120 deg rotation - cart. axis [1,1,1]        

 cryst.   s( 6) = (     0          0          1      )
                  (     1          0          0      )
                  (     0          1          0      )

 cart.    s( 6) = (  0.0000000  0.0000000  1.0000000 )
                  (  1.0000000  0.0000000  0.0000000 )
                  (  0.0000000  1.0000000  0.0000000 )


      isym =  7     inversion                                    

 cryst.   s( 7) = (    -1          0          0      )
                  (     0         -1          0      )
                  (     0          0         -1      )

 cart.    s( 7) = ( -1.0000000  0.0000000  0.0000000 )
                  (  0.0000000 -1.0000000  0.0000000 )
                  (  0.0000000  0.0000000 -1.0000000 )


      isym =  8     inv. 180 deg rotation - cart. axis [1,-1,0]  

 cryst.   s( 8) = (     1          0          0      )
                  (     0          0          1      )
                  (     0          1          0      )

 cart.    s( 8) = (  0.0000000  1.0000000  0.0000000 )
                  (  1.0000000  0.0000000  0.0000000 )
                  (  0.0000000  0.0000000  1.0000000 )


      isym =  9     inv. 180 deg rotation - cart. axis [-1,0,1]  

 cryst.   s( 9) = (     0          0          1      )
                  (     0          1          0      )
                  (     1          0          0      )

 cart.    s( 9) = (  0.0000000  0.0000000  1.0000000 )
                  (  0.0000000  1.0000000  0.0000000 )
                  (  1.0000000  0.0000000  0.0000000 )


      isym = 10     inv. 180 deg rotation - cart. axis [0,1,-1]  

 cryst.   s(10) = (     0          1          0      )
                  (     1          0          0      )
                  (     0          0          1      )

 cart.    s(10) = (  1.0000000  0.0000000  0.0000000 )
                  (  0.0000000  0.0000000  1.0000000 )
                  (  0.0000000  1.0000000  0.0000000 )


      isym = 11     inv. 120 deg rotation - cart. axis [-1,-1,-1]

 cryst.   s(11) = (     0         -1          0      )
                  (     0          0         -1      )
                  (    -1          0          0      )

 cart.    s(11) = (  0.0000000 -1.0000000  0.0000000 )
                  (  0.0000000  0.0000000 -1.0000000 )
                  ( -1.0000000  0.0000000  0.0000000 )


      isym = 12     inv. 120 deg rotation - cart. axis [1,1,1]   

 cryst.   s(12) = (     0          0         -1      )
                  (    -1          0          0      )
                  (     0         -1          0      )

 cart.    s(12) = (  0.0000000  0.0000000 -1.0000000 )
                  ( -1.0000000  0.0000000  0.0000000 )
                  (  0.0000000 -1.0000000  0.0000000 )


   Cartesian axes

     site n.     atom                  positions (alat units)
         1           Ni1 tau(   1) = (   0.0000000   0.0000000   0.0000000  )
         2           Ni2 tau(   2) = (   1.0000000   0.5000000   0.5000000  )
         3           Ni2 tau(   3) = (   0.5000000   1.0000000   0.5000000  )
         4           Ni2 tau(   4) = (   0.5000000   0.5000000   1.0000000  )
         5           Ni3 tau(   5) = (   0.5000000   0.5000000   0.0000000  )
         6           Ni3 tau(   6) = (   0.5000000   0.0000000   0.5000000  )
         7           Ni3 tau(   7) = (   0.0000000   0.5000000   0.5000000  )
         8           Ni3 tau(   8) = (   1.0000000   1.0000000   1.0000000  )
         9           O1  tau(   9) = (   0.0000000   0.0000000   0.5000000  )
        10           O1  tau(  10) = (   0.5000000   0.5000000   0.5000000  )
        11           O1  tau(  11) = (   0.0000000   0.5000000   1.0000000  )
        12           O1  tau(  12) = (   0.5000000   0.0000000   1.0000000  )
        13           O1  tau(  13) = (   1.0000000   0.5000000   1.0000000  )
        14           O1  tau(  14) = (   0.5000000   1.0000000   1.0000000  )
        15           O1  tau(  15) = (   0.5000000   0.5000000   1.5000000  )
        16           O1  tau(  16) = (   1.0000000   1.0000000   1.5000000  )

   Crystallographic axes

     site n.     atom                  positions (cryst. coord.)
         1           Ni1 tau(   1) = (  0.0000000  0.0000000  0.0000000  )
         2           Ni2 tau(   2) = (  0.5000000  0.5000000  0.0000000  )
         3           Ni2 tau(   3) = (  0.5000000  0.0000000  0.5000000  )
         4           Ni2 tau(   4) = (  0.0000000  0.5000000  0.5000000  )
         5           Ni3 tau(   5) = (  0.5000000  0.0000000  0.0000000  )
         6           Ni3 tau(   6) = (  0.0000000  0.5000000  0.0000000  )
         7           Ni3 tau(   7) = (  0.0000000  0.0000000  0.5000000  )
         8           Ni3 tau(   8) = (  0.5000000  0.5000000  0.5000000  )
         9           O1  tau(   9) = ( -0.2500000  0.2500000  0.2500000  )
        10           O1  tau(  10) = (  0.2500000  0.2500000  0.2500000  )
        11           O1  tau(  11) = ( -0.2500000  0.2500000  0.7500000  )
        12           O1  tau(  12) = ( -0.2500000  0.7500000  0.2500000  )
        13           O1  tau(  13) = (  0.2500000  0.7500000  0.2500000  )
        14           O1  tau(  14) = (  0.2500000  0.2500000  0.7500000  )
        15           O1  tau(  15) = ( -0.2500000  0.7500000  0.7500000  )
        16           O1  tau(  16) = (  0.2500000  0.7500000  0.7500000  )

     number of k points=     4  Gaussian smearing, width (Ry)=  0.0100
                       cart. coord. in units 2pi/alat
        k(    1) = (   0.0000000   0.0000000   0.0000000), wk =   0.1250000
        k(    2) = (   0.2500000  -0.2500000  -0.2500000), wk =   0.3750000
        k(    3) = (   0.0000000   0.0000000  -0.5000000), wk =   0.3750000
        k(    4) = (  -0.2500000  -0.2500000  -0.2500000), wk =   0.1250000

                       cryst. coord.
        k(    1) = (   0.0000000   0.0000000   0.0000000), wk =   0.1250000
        k(    2) = (   0.0000000   0.0000000  -0.5000000), wk =   0.3750000
        k(    3) = (   0.0000000  -0.5000000  -0.5000000), wk =   0.3750000
        k(    4) = (  -0.5000000  -0.5000000  -0.5000000), wk =   0.1250000

     Dense  grid:    95097 G-vectors     FFT dimensions: (  64,  64,  64)

     Dynamical RAM for                 wfc:      21.82 MB

     Dynamical RAM for     wfc (w. buffer):      21.82 MB

     Dynamical RAM for             U proj.:      11.64 MB

     Dynamical RAM for  U proj. (w. buff.):      11.64 MB

     Dynamical RAM for           str. fact:       5.80 MB

     Dynamical RAM for           local pot:       0.00 MB

     Dynamical RAM for          nlocal pot:      45.09 MB

     Dynamical RAM for                qrad:       5.74 MB

     Dynamical RAM for          rho,v,vnew:      20.71 MB

     Dynamical RAM for           G-vectors:       6.17 MB

     Dynamical RAM for          h,s,v(r/c):       2.64 MB

     Dynamical RAM for          <psi|beta>:       0.45 MB

     Dynamical RAM for                 psi:      43.63 MB

     Dynamical RAM for                hpsi:      43.63 MB

     Dynamical RAM for      wfcinit/wfcrot:      43.96 MB

     Estimated static dynamical RAM per process >     136.22 MB

     Estimated max dynamical RAM per process >     226.58 MB

     Atomic positions and unit cell read from directory:
     ./pwscf.save/
 
     Generating pointlists ...
     new r_m :   0.2063 (alat units)  1.6294 (a.u.) for type    1
     new r_m :   0.2063 (alat units)  1.6294 (a.u.) for type    2
     new r_m :   0.2063 (alat units)  1.6294 (a.u.) for type    3
     new r_m :   0.2063 (alat units)  1.6294 (a.u.) for type    4

     The potential is recalculated from file :
     ./pwscf.save/charge-density

 --- in v_hubbard ---
Hubbard energy    0.0632
 -------
     Number of +U iterations with fixed ns =  0
     Starting occupations:
 --- enter write_ns ---
 LDA+U parameters:
U( 1)     =  0.00000000
alpha( 1) =  0.10000000
U( 2)     =  0.00000000
U( 3)     =  0.00000000
U( 4)     =  0.00000000
atom    1   Tr[ns(na)] (up, down, total) =   4.95331  3.64050  8.59382
   spin  1
    eigenvalues: 
  0.983  0.983  0.996  0.996  0.996
    eigenvectors:
  0.001  0.999  0.000  0.000  0.000
  0.000  0.000  0.333  0.000  0.666
  0.000  0.000  0.333  0.489  0.178
  0.999  0.001  0.000  0.000  0.000
  0.000  0.000  0.333  0.511  0.156
    occupations:
  0.983 -0.000 -0.000  0.000 -0.000
 -0.000  0.996 -0.000 -0.000  0.000
 -0.000 -0.000  0.996  0.000  0.000
  0.000 -0.000  0.000  0.983 -0.000
 -0.000  0.000  0.000 -0.000  0.996
   spin  2
    eigenvalues: 
  0.332  0.332  0.992  0.992  0.992
    eigenvectors:
  0.737  0.263  0.000  0.000  0.000
  0.000  0.000  0.009  0.658  0.333
  0.000  0.000  0.430  0.236  0.333
  0.263  0.737  0.000  0.000  0.000
  0.000  0.000  0.561  0.106  0.333
    occupations:
  0.332  0.001  0.001  0.000  0.001
  0.001  0.992  0.000  0.001 -0.000
  0.001  0.000  0.992 -0.001 -0.000
  0.000  0.001 -0.001  0.332 -0.000
  0.001 -0.000 -0.000 -0.000  0.992
atomic mag. moment =   1.31281
atom    2   Tr[ns(na)] (up, down, total) =   4.95331  3.64051  8.59382
   spin  1
    eigenvalues: 
  0.983  0.983  0.996  0.996  0.996
    eigenvectors:
  0.250  0.750  0.000  0.000  0.000
  0.000  0.000  0.333  0.167  0.500
  0.000  0.000  0.334  0.666  0.000
  0.750  0.250  0.000  0.000  0.000
  0.000  0.000  0.333  0.167  0.500
    occupations:
  0.983 -0.000 -0.000  0.000 -0.000
 -0.000  0.996 -0.000 -0.000  0.000
 -0.000 -0.000  0.996  0.000  0.000
  0.000 -0.000  0.000  0.983  0.000
 -0.000  0.000  0.000  0.000  0.996
   spin  2
    eigenvalues: 
  0.332  0.332  0.992  0.992  0.992
    eigenvectors:
  0.750  0.250  0.000  0.000  0.000
  0.000  0.000  0.500  0.167  0.333
  0.000  0.000  0.000  0.667  0.333
  0.250  0.750  0.000  0.000  0.000
  0.000  0.000  0.500  0.167  0.333
    occupations:
  0.332  0.001  0.001 -0.000  0.001
  0.001  0.992  0.000  0.001 -0.000
  0.001  0.000  0.992 -0.001 -0.000
 -0.000  0.001 -0.001  0.332 -0.000
  0.001 -0.000 -0.000 -0.000  0.992
atomic mag. moment =   1.31281
atom    3   Tr[ns(na)] (up, down, total) =   4.95331  3.64051  8.59382
   spin  1
    eigenvalues: 
  0.983  0.983  0.996  0.996  0.996
    eigenvectors:
  0.250  0.750  0.000  0.000  0.000
  0.000  0.000  0.334  0.666  0.000
  0.000  0.000  0.333  0.167  0.500
  0.750  0.250  0.000  0.000  0.000
  0.000  0.000  0.333  0.167  0.500
    occupations:
  0.983 -0.000 -0.000 -0.000 -0.000
 -0.000  0.996 -0.000 -0.000  0.000
 -0.000 -0.000  0.996  0.000  0.000
 -0.000 -0.000  0.000  0.983 -0.000
 -0.000  0.000  0.000 -0.000  0.996
   spin  2
    eigenvalues: 
  0.332  0.332  0.992  0.992  0.992
    eigenvectors:
  0.750  0.250  0.000  0.000  0.000
  0.000  0.000  0.000  0.667  0.333
  0.000  0.000  0.500  0.167  0.333
  0.250  0.750  0.000  0.000  0.000
  0.000  0.000  0.500  0.167  0.333
    occupations:
  0.332  0.001  0.001  0.000  0.001
  0.001  0.992  0.000  0.001 -0.000
  0.001  0.000  0.992 -0.001 -0.000
  0.000  0.001 -0.001  0.332  0.000
  0.001 -0.000 -0.000  0.000  0.992
atomic mag. moment =   1.31281
atom    4   Tr[ns(na)] (up, down, total) =   4.95331  3.64051  8.59382
   spin  1
    eigenvalues: 
  0.983  0.983  0.996  0.996  0.996
    eigenvectors:
  1.000  0.000  0.000  0.000  0.000
  0.000  0.000  0.333  0.167  0.500
  0.000  0.000  0.333  0.167  0.500
  0.000  1.000  0.000  0.000  0.000
  0.000  0.000  0.334  0.666  0.000
    occupations:
  0.983 -0.000 -0.000  0.000 -0.000
 -0.000  0.996 -0.000 -0.000  0.000
 -0.000 -0.000  0.996  0.000  0.000
  0.000 -0.000  0.000  0.983 -0.000
 -0.000  0.000  0.000 -0.000  0.996
   spin  2
    eigenvalues: 
  0.332  0.332  0.992  0.992  0.992
    eigenvectors:
  0.000  1.000  0.000  0.000  0.000
  0.000  0.000  0.500  0.167  0.333
  0.000  0.000  0.500  0.167  0.333
  1.000  0.000  0.000  0.000  0.000
  0.000  0.000  0.000  0.667  0.333
    occupations:
  0.332  0.001  0.001  0.000  0.001
  0.001  0.992  0.000  0.001 -0.000
  0.001  0.000  0.992 -0.001 -0.000
  0.000  0.001 -0.001  0.332 -0.000
  0.001 -0.000 -0.000 -0.000  0.992
atomic mag. moment =   1.31281
atom    5   Tr[ns(na)] (up, down, total) =   3.64051  4.95331  8.59382
   spin  1
    eigenvalues: 
  0.332  0.332  0.992  0.992  0.992
    eigenvectors:
  0.000  1.000  0.000  0.000  0.000
  0.000  0.000  0.167  0.500  0.333
  0.000  0.000  0.167  0.500  0.333
  1.000  0.000  0.000  0.000  0.000
  0.000  0.000  0.667  0.000  0.333
    occupations:
  0.332  0.001  0.001  0.000  0.001
  0.001  0.992  0.000  0.001 -0.000
  0.001  0.000  0.992 -0.001 -0.000
  0.000  0.001 -0.001  0.332 -0.000
  0.001 -0.000 -0.000 -0.000  0.992
   spin  2
    eigenvalues: 
  0.983  0.983  0.996  0.996  0.996
    eigenvectors:
  0.000  1.000  0.000  0.000  0.000
  0.000  0.000  0.333  0.500  0.167
  0.000  0.000  0.333  0.500  0.167
  1.000  0.000  0.000  0.000  0.000
  0.000  0.000  0.333  0.000  0.667
    occupations:
  0.983 -0.000 -0.000  0.000 -0.000
 -0.000  0.996 -0.000 -0.000  0.000
 -0.000 -0.000  0.996  0.000  0.000
  0.000 -0.000  0.000  0.983 -0.000
 -0.000  0.000  0.000 -0.000  0.996
atomic mag. moment =  -1.31280
atom    6   Tr[ns(na)] (up, down, total) =   3.64051  4.95331  8.59382
   spin  1
    eigenvalues: 
  0.332  0.332  0.992  0.992  0.992
    eigenvectors:
  0.750  0.250  0.000  0.000  0.000
  0.000  0.000  0.667  0.000  0.333
  0.000  0.000  0.167  0.500  0.333
  0.250  0.750  0.000  0.000  0.000
  0.000  0.000  0.167  0.500  0.333
    occupations:
  0.332  0.001  0.001  0.000  0.001
  0.001  0.992  0.000  0.001 -0.000
  0.001  0.000  0.992 -0.001 -0.000
  0.000  0.001 -0.001  0.332  0.000
  0.001 -0.000 -0.000  0.000  0.992
   spin  2
    eigenvalues: 
  0.983  0.983  0.996  0.996  0.996
    eigenvectors:
  0.750  0.250  0.000  0.000  0.000
  0.000  0.000  0.333  0.000  0.667
  0.000  0.000  0.333  0.500  0.167
  0.250  0.750  0.000  0.000  0.000
  0.000  0.000  0.333  0.500  0.167
    occupations:
  0.983 -0.000 -0.000  0.000 -0.000
 -0.000  0.996 -0.000 -0.000  0.000
 -0.000 -0.000  0.996  0.000  0.000
  0.000 -0.000  0.000  0.983 -0.000
 -0.000  0.000  0.000 -0.000  0.996
atomic mag. moment =  -1.31280
atom    7   Tr[ns(na)] (up, down, total) =   3.64051  4.95331  8.59382
   spin  1
    eigenvalues: 
  0.332  0.332  0.992  0.992  0.992
    eigenvectors:
  0.750  0.250  0.000  0.000  0.000
  0.000  0.000  0.167  0.500  0.333
  0.000  0.000  0.667  0.000  0.333
  0.250  0.750  0.000  0.000  0.000
  0.000  0.000  0.167  0.500  0.333
    occupations:
  0.332  0.001  0.001 -0.000  0.001
  0.001  0.992  0.000  0.001 -0.000
  0.001  0.000  0.992 -0.001 -0.000
 -0.000  0.001 -0.001  0.332 -0.000
  0.001 -0.000 -0.000 -0.000  0.992
   spin  2
    eigenvalues: 
  0.983  0.983  0.996  0.996  0.996
    eigenvectors:
  0.750  0.250  0.000  0.000  0.000
  0.000  0.000  0.333  0.500  0.167
  0.000  0.000  0.333  0.000  0.667
  0.250  0.750  0.000  0.000  0.000
  0.000  0.000  0.333  0.500  0.167
    occupations:
  0.983 -0.000 -0.000 -0.000 -0.000
 -0.000  0.996 -0.000 -0.000  0.000
 -0.000 -0.000  0.996  0.000  0.000
 -0.000 -0.000  0.000  0.983  0.000
 -0.000  0.000  0.000  0.000  0.996
atomic mag. moment =  -1.31280
atom    8   Tr[ns(na)] (up, down, total) =   3.64051  4.95331  8.59383
   spin  1
    eigenvalues: 
  0.332  0.332  0.992  0.992  0.992
    eigenvectors:
  0.209  0.791  0.000  0.000  0.000
  0.000  0.000  0.006  0.661  0.333
  0.000  0.000  0.551  0.116  0.333
  0.791  0.209  0.000  0.000  0.000
  0.000  0.000  0.443  0.223  0.333
    occupations:
  0.332  0.001  0.001  0.000  0.001
  0.001  0.992  0.000  0.001 -0.000
  0.001  0.000  0.992 -0.001 -0.000
  0.000  0.001 -0.001  0.332 -0.000
  0.001 -0.000 -0.000 -0.000  0.992
   spin  2
    eigenvalues: 
  0.983  0.983  0.996  0.996  0.996
    eigenvectors:
  0.040  0.960  0.000  0.000  0.000
  0.000  0.000  0.333  0.030  0.636
  0.000  0.000  0.333  0.365  0.302
  0.960  0.040  0.000  0.000  0.000
  0.000  0.000  0.333  0.605  0.062
    occupations:
  0.983 -0.000 -0.000  0.000 -0.000
 -0.000  0.996 -0.000 -0.000  0.000
 -0.000 -0.000  0.996  0.000  0.000
  0.000 -0.000  0.000  0.983 -0.000
 -0.000  0.000  0.000 -0.000  0.996
atomic mag. moment =  -1.31280
atom    9   Tr[ns(na)] (up, down, total) =   2.76393  2.76393  5.52786
   spin  1
    eigenvalues: 
  0.921  0.921  0.921
    eigenvectors:
  0.667  0.000  0.333
  0.166  0.500  0.334
  0.166  0.500  0.334
    occupations:
  0.921 -0.000 -0.000
 -0.000  0.921  0.000
 -0.000  0.000  0.921
   spin  2
    eigenvalues: 
  0.921  0.921  0.921
    eigenvectors:
  0.000  0.666  0.334
  0.500  0.167  0.333
  0.500  0.167  0.333
    occupations:
  0.921 -0.000 -0.000
 -0.000  0.921  0.000
 -0.000  0.000  0.921
atomic mag. moment =  -0.00000
atom   10   Tr[ns(na)] (up, down, total) =   2.76393  2.76393  5.52786
   spin  1
    eigenvalues: 
  0.921  0.921  0.921
    eigenvectors:
  0.625  0.041  0.333
  0.327  0.340  0.333
  0.048  0.619  0.333
    occupations:
  0.921 -0.000 -0.000
 -0.000  0.921  0.000
 -0.000  0.000  0.921
   spin  2
    eigenvalues: 
  0.921  0.921  0.921
    eigenvectors:
  0.620  0.047  0.333
  0.337  0.329  0.333
  0.043  0.624  0.333
    occupations:
  0.921 -0.000 -0.000
 -0.000  0.921  0.000
 -0.000  0.000  0.921
atomic mag. moment =  -0.00000
atom   11   Tr[ns(na)] (up, down, total) =   2.76393  2.76393  5.52786
   spin  1
    eigenvalues: 
  0.921  0.921  0.921
    eigenvectors:
  0.166  0.500  0.334
  0.166  0.500  0.334
  0.667  0.000  0.333
    occupations:
  0.921 -0.000 -0.000
 -0.000  0.921  0.000
 -0.000  0.000  0.921
   spin  2
    eigenvalues: 
  0.921  0.921  0.921
    eigenvectors:
  0.500  0.167  0.333
  0.500  0.167  0.333
  0.000  0.666  0.334
    occupations:
  0.921 -0.000 -0.000
 -0.000  0.921  0.000
 -0.000  0.000  0.921
atomic mag. moment =  -0.00000
atom   12   Tr[ns(na)] (up, down, total) =   2.76393  2.76393  5.52786
   spin  1
    eigenvalues: 
  0.921  0.921  0.921
    eigenvectors:
  0.166  0.500  0.334
  0.667  0.000  0.333
  0.166  0.500  0.334
    occupations:
  0.921 -0.000 -0.000
 -0.000  0.921  0.000
 -0.000  0.000  0.921
   spin  2
    eigenvalues: 
  0.921  0.921  0.921
    eigenvectors:
  0.500  0.167  0.333
  0.000  0.666  0.334
  0.500  0.167  0.333
    occupations:
  0.921 -0.000 -0.000
 -0.000  0.921  0.000
 -0.000  0.000  0.921
atomic mag. moment =  -0.00000
atom   13   Tr[ns(na)] (up, down, total) =   2.76393  2.76393  5.52786
   spin  1
    eigenvalues: 
  0.921  0.921  0.921
    eigenvectors:
  0.166  0.500  0.334
  0.166  0.500  0.334
  0.667  0.000  0.333
    occupations:
  0.921 -0.000 -0.000
 -0.000  0.921  0.000
 -0.000  0.000  0.921
   spin  2
    eigenvalues: 
  0.921  0.921  0.921
    eigenvectors:
  0.500  0.167  0.333
  0.500  0.167  0.333
  0.000  0.666  0.334
    occupations:
  0.921 -0.000 -0.000
 -0.000  0.921  0.000
 -0.000  0.000  0.921
atomic mag. moment =  -0.00000
atom   14   Tr[ns(na)] (up, down, total) =   2.76393  2.76393  5.52786
   spin  1
    eigenvalues: 
  0.921  0.921  0.921
    eigenvectors:
  0.166  0.500  0.334
  0.667  0.000  0.333
  0.166  0.500  0.334
    occupations:
  0.921 -0.000 -0.000
 -0.000  0.921  0.000
 -0.000  0.000  0.921
   spin  2
    eigenvalues: 
  0.921  0.921  0.921
    eigenvectors:
  0.500  0.167  0.333
  0.000  0.666  0.334
  0.500  0.167  0.333
    occupations:
  0.921 -0.000 -0.000
 -0.000  0.921  0.000
 -0.000  0.000  0.921
atomic mag. moment =  -0.00000
atom   15   Tr[ns(na)] (up, down, total) =   2.76393  2.76393  5.52786
   spin  1
    eigenvalues: 
  0.921  0.921  0.921
    eigenvectors:
  0.617  0.050  0.333
  0.344  0.323  0.333
  0.039  0.627  0.333
    occupations:
  0.921 -0.000 -0.000
 -0.000  0.921  0.000
 -0.000  0.000  0.921
   spin  2
    eigenvalues: 
  0.921  0.921  0.921
    eigenvectors:
  0.620  0.047  0.333
  0.337  0.329  0.333
  0.043  0.624  0.333
    occupations:
  0.921 -0.000 -0.000
 -0.000  0.921  0.000
 -0.000  0.000  0.921
atomic mag. moment =  -0.00000
atom   16   Tr[ns(na)] (up, down, total) =   2.76393  2.76393  5.52786
   spin  1
    eigenvalues: 
  0.921  0.921  0.921
    eigenvectors:
  0.667  0.000  0.333
  0.166  0.500  0.334
  0.166  0.500  0.334
    occupations:
  0.921 -0.000 -0.000
 -0.000  0.921  0.000
 -0.000  0.000  0.921
   spin  2
    eigenvalues: 
  0.921  0.921  0.921
    eigenvectors:
  0.000  0.666  0.334
  0.500  0.167  0.333
  0.500  0.167  0.333
    occupations:
  0.921 -0.000 -0.000
 -0.000  0.921  0.000
 -0.000  0.000  0.921
atomic mag. moment =  -0.00000
N of occupied +U levels =  112.973446
 --- exit write_ns ---
 Atomic wfc used for LDA+U Projector are NOT orthogonalized
     Starting wfcs from file
 read band struvture from:./pwscf.save/data-file-schema.xml
 ======================================
 Any question, Please contact cndaqiang
 ======================================
     Q: lda_plus_u                =          T
     Q: lda_plus_u_kind           =          0
 --- enter write_ns ---
 LDA+U parameters:
U( 1)     =  0.00000000
alpha( 1) =  0.10000000
U( 2)     =  0.00000000
U( 3)     =  0.00000000
U( 4)     =  0.00000000
atom    1   Tr[ns(na)] (up, down, total) =   4.95153  3.62178  8.57330
   spin  1
    eigenvalues: 
  0.982  0.982  0.996  0.996  0.996
    eigenvectors:
  0.002  0.998  0.000  0.000  0.000
  0.000  0.000  0.333  0.010  0.656
  0.000  0.000  0.333  0.423  0.243
  0.998  0.002  0.000  0.000  0.000
  0.000  0.000  0.333  0.566  0.100
    occupations:
  0.982 -0.000 -0.000  0.000 -0.000
 -0.000  0.996 -0.000 -0.000  0.000
 -0.000 -0.000  0.996  0.000  0.000
  0.000 -0.000  0.000  0.982 -0.000
 -0.000  0.000  0.000 -0.000  0.996
   spin  2
    eigenvalues: 
  0.323  0.323  0.992  0.992  0.992
    eigenvectors:
  0.055  0.945  0.000  0.000  0.000
  0.000  0.000  0.000  0.667  0.333
  0.000  0.000  0.492  0.174  0.333
  0.945  0.055  0.000  0.000  0.000
  0.000  0.000  0.508  0.159  0.333
    occupations:
  0.323  0.001  0.001  0.000  0.001
  0.001  0.992  0.000  0.001 -0.000
  0.001  0.000  0.992 -0.001 -0.000
  0.000  0.001 -0.001  0.323 -0.000
  0.001 -0.000 -0.000 -0.000  0.992
atomic mag. moment =   1.32975
atom    2   Tr[ns(na)] (up, down, total) =   4.95333  3.64114  8.59447
   spin  1
    eigenvalues: 
  0.983  0.983  0.996  0.996  0.996
    eigenvectors:
  0.250  0.750  0.000  0.000  0.000
  0.000  0.000  0.355  0.500  0.145
  0.000  0.000  0.290  0.000  0.710
  0.750  0.250  0.000  0.000  0.000
  0.000  0.000  0.355  0.500  0.145
    occupations:
  0.983 -0.000 -0.000  0.000 -0.000
 -0.000  0.996 -0.000 -0.000  0.000
 -0.000 -0.000  0.996  0.000  0.000
  0.000 -0.000  0.000  0.983  0.000
 -0.000  0.000  0.000  0.000  0.996
   spin  2
    eigenvalues: 
  0.332  0.333  0.992  0.992  0.992
    eigenvectors:
  0.750  0.250  0.000  0.000  0.000
  0.000  0.000  0.500  0.466  0.034
  0.000  0.000  0.000  0.069  0.931
  0.250  0.750  0.000  0.000  0.000
  0.000  0.000  0.500  0.466  0.034
    occupations:
  0.332  0.001  0.001 -0.000  0.001
  0.001  0.992  0.000  0.001 -0.000
  0.001  0.000  0.992 -0.001 -0.000
 -0.000  0.001 -0.001  0.332  0.000
  0.001 -0.000 -0.000  0.000  0.992
atomic mag. moment =   1.31219
atom    3   Tr[ns(na)] (up, down, total) =   4.95333  3.64114  8.59447
   spin  1
    eigenvalues: 
  0.983  0.983  0.996  0.996  0.996
    eigenvectors:
  0.250  0.750  0.000  0.000  0.000
  0.000  0.000  0.290  0.000  0.710
  0.000  0.000  0.355  0.500  0.145
  0.750  0.250  0.000  0.000  0.000
  0.000  0.000  0.355  0.500  0.145
    occupations:
  0.983 -0.000 -0.000 -0.000 -0.000
 -0.000  0.996 -0.000 -0.000  0.000
 -0.000 -0.000  0.996  0.000  0.000
 -0.000 -0.000  0.000  0.983 -0.000
 -0.000  0.000  0.000 -0.000  0.996
   spin  2
    eigenvalues: 
  0.332  0.333  0.992  0.992  0.992
    eigenvectors:
  0.750  0.250  0.000  0.000  0.000
  0.000  0.000  0.000  0.069  0.931
  0.000  0.000  0.500  0.466  0.034
  0.250  0.750  0.000  0.000  0.000
  0.000  0.000  0.500  0.466  0.034
    occupations:
  0.332  0.001  0.001  0.000  0.001
  0.001  0.992  0.000  0.001 -0.000
  0.001  0.000  0.992 -0.001 -0.000
  0.000  0.001 -0.001  0.332 -0.000
  0.001 -0.000 -0.000 -0.000  0.992
atomic mag. moment =   1.31219
atom    4   Tr[ns(na)] (up, down, total) =   4.95333  3.64114  8.59447
   spin  1
    eigenvalues: 
  0.983  0.983  0.996  0.996  0.996
    eigenvectors:
  1.000  0.000  0.000  0.000  0.000
  0.000  0.000  0.355  0.500  0.145
  0.000  0.000  0.355  0.500  0.145
  0.000  1.000  0.000  0.000  0.000
  0.000  0.000  0.290  0.000  0.710
    occupations:
  0.983 -0.000 -0.000  0.000 -0.000
 -0.000  0.996 -0.000 -0.000  0.000
 -0.000 -0.000  0.996  0.000  0.000
  0.000 -0.000  0.000  0.983 -0.000
 -0.000  0.000  0.000 -0.000  0.996
   spin  2
    eigenvalues: 
  0.332  0.333  0.992  0.992  0.992
    eigenvectors:
  0.000  1.000  0.000  0.000  0.000
  0.000  0.000  0.500  0.466  0.034
  0.000  0.000  0.500  0.466  0.034
  1.000  0.000  0.000  0.000  0.000
  0.000  0.000  0.000  0.069  0.931
    occupations:
  0.333  0.001  0.001  0.000  0.002
  0.001  0.992  0.000  0.001 -0.000
  0.001  0.000  0.992 -0.001 -0.000
  0.000  0.001 -0.001  0.332 -0.000
  0.002 -0.000 -0.000 -0.000  0.992
atomic mag. moment =   1.31219
atom    5   Tr[ns(na)] (up, down, total) =   3.64061  4.95341  8.59402
   spin  1
    eigenvalues: 
  0.332  0.332  0.992  0.992  0.992
    eigenvectors:
  0.000  1.000  0.000  0.000  0.000
  0.000  0.000  0.500  0.173  0.327
  0.000  0.000  0.500  0.173  0.327
  1.000  0.000  0.000  0.000  0.000
  0.000  0.000  0.000  0.654  0.346
    occupations:
  0.332  0.001  0.001  0.000  0.001
  0.001  0.992  0.000  0.001 -0.000
  0.001  0.000  0.992 -0.001 -0.000
  0.000  0.001 -0.001  0.332 -0.000
  0.001 -0.000 -0.000 -0.000  0.992
   spin  2
    eigenvalues: 
  0.983  0.983  0.996  0.996  0.996
    eigenvectors:
  0.000  1.000  0.000  0.000  0.000
  0.000  0.000  0.499  0.500  0.001
  0.000  0.000  0.499  0.500  0.001
  1.000  0.000  0.000  0.000  0.000
  0.000  0.000  0.002  0.000  0.998
    occupations:
  0.983 -0.000 -0.000  0.000 -0.000
 -0.000  0.996 -0.000 -0.000  0.000
 -0.000 -0.000  0.996  0.000  0.000
  0.000 -0.000  0.000  0.983 -0.000
 -0.000  0.000  0.000 -0.000  0.996
atomic mag. moment =  -1.31280
atom    6   Tr[ns(na)] (up, down, total) =   3.64061  4.95341  8.59402
   spin  1
    eigenvalues: 
  0.332  0.332  0.992  0.992  0.992
    eigenvectors:
  0.750  0.250  0.000  0.000  0.000
  0.000  0.000  0.000  0.654  0.346
  0.000  0.000  0.500  0.173  0.327
  0.250  0.750  0.000  0.000  0.000
  0.000  0.000  0.500  0.173  0.327
    occupations:
  0.332  0.001  0.001  0.000  0.001
  0.001  0.992  0.000  0.001 -0.000
  0.001  0.000  0.992 -0.001 -0.000
  0.000  0.001 -0.001  0.332 -0.000
  0.001 -0.000 -0.000 -0.000  0.992
   spin  2
    eigenvalues: 
  0.983  0.983  0.996  0.996  0.996
    eigenvectors:
  0.750  0.250  0.000  0.000  0.000
  0.000  0.000  0.002  0.000  0.998
  0.000  0.000  0.499  0.500  0.001
  0.250  0.750  0.000  0.000  0.000
  0.000  0.000  0.499  0.500  0.001
    occupations:
  0.983 -0.000 -0.000  0.000 -0.000
 -0.000  0.996 -0.000 -0.000  0.000
 -0.000 -0.000  0.996  0.000  0.000
  0.000 -0.000  0.000  0.983 -0.000
 -0.000  0.000  0.000 -0.000  0.996
atomic mag. moment =  -1.31280
atom    7   Tr[ns(na)] (up, down, total) =   3.64061  4.95341  8.59402
   spin  1
    eigenvalues: 
  0.332  0.332  0.992  0.992  0.992
    eigenvectors:
  0.750  0.250  0.000  0.000  0.000
  0.000  0.000  0.500  0.173  0.327
  0.000  0.000  0.000  0.654  0.346
  0.250  0.750  0.000  0.000  0.000
  0.000  0.000  0.500  0.173  0.327
    occupations:
  0.332  0.001  0.001 -0.000  0.001
  0.001  0.992  0.000  0.001 -0.000
  0.001  0.000  0.992 -0.001 -0.000
 -0.000  0.001 -0.001  0.332  0.000
  0.001 -0.000 -0.000  0.000  0.992
   spin  2
    eigenvalues: 
  0.983  0.983  0.996  0.996  0.996
    eigenvectors:
  0.750  0.250  0.000  0.000  0.000
  0.000  0.000  0.499  0.500  0.001
  0.000  0.000  0.002  0.000  0.998
  0.250  0.750  0.000  0.000  0.000
  0.000  0.000  0.499  0.500  0.001
    occupations:
  0.983 -0.000 -0.000 -0.000 -0.000
 -0.000  0.996 -0.000 -0.000  0.000
 -0.000 -0.000  0.996  0.000  0.000
 -0.000 -0.000  0.000  0.983  0.000
 -0.000  0.000  0.000  0.000  0.996
atomic mag. moment =  -1.31280
atom    8   Tr[ns(na)] (up, down, total) =   3.64226  4.95500  8.59726
   spin  1
    eigenvalues: 
  0.333  0.333  0.992  0.992  0.992
    eigenvectors:
  0.177  0.823  0.000  0.000  0.000
  0.000  0.000  0.001  0.666  0.333
  0.000  0.000  0.521  0.146  0.333
  0.823  0.177  0.000  0.000  0.000
  0.000  0.000  0.478  0.189  0.333
    occupations:
  0.333  0.001  0.001  0.000  0.001
  0.001  0.992  0.000  0.001 -0.000
  0.001  0.000  0.992 -0.001 -0.000
  0.000  0.001 -0.001  0.333 -0.000
  0.001 -0.000 -0.000 -0.000  0.992
   spin  2
    eigenvalues: 
  0.983  0.983  0.996  0.996  0.996
    eigenvectors:
  0.015  0.985  0.000  0.000  0.000
  0.000  0.000  0.333  0.005  0.661
  0.000  0.000  0.333  0.447  0.220
  0.985  0.015  0.000  0.000  0.000
  0.000  0.000  0.333  0.548  0.118
    occupations:
  0.983 -0.000 -0.000  0.000 -0.000
 -0.000  0.996 -0.000 -0.000  0.000
 -0.000 -0.000  0.996  0.000  0.000
  0.000 -0.000  0.000  0.983 -0.000
 -0.000  0.000  0.000 -0.000  0.996
atomic mag. moment =  -1.31274
atom    9   Tr[ns(na)] (up, down, total) =   2.76390  2.76561  5.52951
   spin  1
    eigenvalues: 
  0.921  0.921  0.921
    eigenvectors:
  0.709  0.000  0.291
  0.146  0.500  0.354
  0.146  0.500  0.354
    occupations:
  0.921 -0.000 -0.000
 -0.000  0.921  0.000
 -0.000  0.000  0.921
   spin  2
    eigenvalues: 
  0.921  0.921  0.923
    eigenvectors:
  0.000  0.006  0.994
  0.500  0.497  0.003
  0.500  0.497  0.003
    occupations:
  0.923 -0.000 -0.000
 -0.000  0.921  0.000
 -0.000  0.000  0.921
atomic mag. moment =  -0.00171
atom   10   Tr[ns(na)] (up, down, total) =   2.76395  2.76398  5.52792
   spin  1
    eigenvalues: 
  0.921  0.921  0.921
    eigenvectors:
  0.560  0.107  0.333
  0.432  0.235  0.333
  0.008  0.658  0.333
    occupations:
  0.921 -0.000 -0.000
 -0.000  0.921  0.000
 -0.000  0.000  0.921
   spin  2
    eigenvalues: 
  0.921  0.921  0.921
    eigenvectors:
  0.574  0.093  0.333
  0.413  0.254  0.333
  0.013  0.653  0.333
    occupations:
  0.921 -0.000 -0.000
 -0.000  0.921  0.000
 -0.000  0.000  0.921
atomic mag. moment =  -0.00003
atom   11   Tr[ns(na)] (up, down, total) =   2.76390  2.76561  5.52951
   spin  1
    eigenvalues: 
  0.921  0.921  0.921
    eigenvectors:
  0.146  0.500  0.354
  0.146  0.500  0.354
  0.709  0.000  0.291
    occupations:
  0.921 -0.000 -0.000
 -0.000  0.921  0.000
 -0.000  0.000  0.921
   spin  2
    eigenvalues: 
  0.921  0.921  0.923
    eigenvectors:
  0.500  0.497  0.003
  0.500  0.497  0.003
  0.000  0.006  0.994
    occupations:
  0.921 -0.000 -0.000
 -0.000  0.921  0.000
 -0.000  0.000  0.923
atomic mag. moment =  -0.00171
atom   12   Tr[ns(na)] (up, down, total) =   2.76390  2.76561  5.52951
   spin  1
    eigenvalues: 
  0.921  0.921  0.921
    eigenvectors:
  0.146  0.500  0.354
  0.709  0.000  0.291
  0.146  0.500  0.354
    occupations:
  0.921 -0.000 -0.000
 -0.000  0.921  0.000
 -0.000  0.000  0.921
   spin  2
    eigenvalues: 
  0.921  0.921  0.923
    eigenvectors:
  0.500  0.497  0.003
  0.000  0.006  0.994
  0.500  0.497  0.003
    occupations:
  0.921 -0.000 -0.000
 -0.000  0.923  0.000
 -0.000  0.000  0.921
atomic mag. moment =  -0.00171
atom   13   Tr[ns(na)] (up, down, total) =   2.76390  2.76561  5.52951
   spin  1
    eigenvalues: 
  0.921  0.921  0.921
    eigenvectors:
  0.146  0.500  0.354
  0.146  0.500  0.354
  0.709  0.000  0.291
    occupations:
  0.921 -0.000 -0.000
 -0.000  0.921  0.000
 -0.000  0.000  0.921
   spin  2
    eigenvalues: 
  0.921  0.921  0.923
    eigenvectors:
  0.500  0.497  0.003
  0.500  0.497  0.003
  0.000  0.006  0.994
    occupations:
  0.921 -0.000 -0.000
 -0.000  0.921  0.000
 -0.000  0.000  0.923
atomic mag. moment =  -0.00171
atom   14   Tr[ns(na)] (up, down, total) =   2.76390  2.76561  5.52951
   spin  1
    eigenvalues: 
  0.921  0.921  0.921
    eigenvectors:
  0.146  0.500  0.354
  0.709  0.000  0.291
  0.146  0.500  0.354
    occupations:
  0.921 -0.000 -0.000
 -0.000  0.921  0.000
 -0.000  0.000  0.921
   spin  2
    eigenvalues: 
  0.921  0.921  0.923
    eigenvectors:
  0.500  0.497  0.003
  0.000  0.006  0.994
  0.500  0.497  0.003
    occupations:
  0.921 -0.000 -0.000
 -0.000  0.923  0.000
 -0.000  0.000  0.921
atomic mag. moment =  -0.00171
atom   15   Tr[ns(na)] (up, down, total) =   2.76395  2.76398  5.52792
   spin  1
    eigenvalues: 
  0.921  0.921  0.921
    eigenvectors:
  0.460  0.206  0.333
  0.537  0.130  0.333
  0.003  0.664  0.333
    occupations:
  0.921 -0.000 -0.000
 -0.000  0.921  0.000
 -0.000  0.000  0.921
   spin  2
    eigenvalues: 
  0.921  0.921  0.921
    eigenvectors:
  0.500  0.167  0.333
  0.500  0.167  0.333
  0.000  0.667  0.333
    occupations:
  0.921 -0.000 -0.000
 -0.000  0.921  0.000
 -0.000  0.000  0.921
atomic mag. moment =  -0.00003
atom   16   Tr[ns(na)] (up, down, total) =   2.76390  2.76561  5.52951
   spin  1
    eigenvalues: 
  0.921  0.921  0.921
    eigenvectors:
  0.709  0.000  0.291
  0.146  0.500  0.354
  0.146  0.500  0.354
    occupations:
  0.921 -0.000 -0.000
 -0.000  0.921  0.000
 -0.000  0.000  0.921
   spin  2
    eigenvalues: 
  0.921  0.921  0.923
    eigenvectors:
  0.000  0.006  0.994
  0.500  0.497  0.003
  0.500  0.497  0.003
    occupations:
  0.923 -0.000 -0.000
 -0.000  0.921  0.000
 -0.000  0.000  0.921
atomic mag. moment =  -0.00171
N of occupied +U levels =  112.968926
 --- exit write_ns ---
 --- in v_hubbard ---
Hubbard energy    0.0630
 -------
     Hubbard energy            =       0.06301262 Ry
 
     init_run     :      1.63s CPU      3.12s WALL (       1 calls)

     Called by init_run:
     wfcinit      :      0.82s CPU      2.10s WALL (       1 calls)
     potinit      :      0.27s CPU      0.39s WALL (       1 calls)
     hinit0       :      0.43s CPU      0.51s WALL (       1 calls)

     Called by electrons:
     v_of_rho     :      0.53s CPU      0.69s WALL (       2 calls)
     v_h          :      0.01s CPU      0.02s WALL (       2 calls)
     v_xc         :      0.52s CPU      0.67s WALL (       2 calls)

     Called by c_bands:
     init_us_2    :      0.11s CPU      0.15s WALL (       8 calls)

     Called by sum_band:

     Called by *egterg:

     Called by h_psi:

     General routines
     calbec       :      0.56s CPU      0.62s WALL (      16 calls)
     fft          :      0.06s CPU      0.14s WALL (      34 calls)
     davcio       :      0.00s CPU      0.45s WALL (      32 calls)
 
     Parallel routines

     Hubbard U routines
     new_ns       :      0.14s CPU      0.28s WALL (       1 calls)
     new_ns       :      0.14s CPU      0.28s WALL (       1 calls)
 
     PWSCF        :      2.73s CPU      4.75s WALL

 
   This run was terminated on:  14:25:44   8Sep2023            

=------------------------------------------------------------------------------=
   JOB DONE.
=------------------------------------------------------------------------------=
