
     Program PWSCF v.6.6 starts on  8Sep2023 at 14:22:50 

     This program is part of the open-source Quantum ESPRESSO suite
     for quantum simulation of materials; please cite
         "P. Giannozzi et al., J. Phys.:Condens. Matter 21 395502 (2009);
         "P. Giannozzi et al., J. Phys.:Condens. Matter 29 465901 (2017);
          URL http://www.quantum-espresso.org", 
     in publications or presentations arising from this work. More details at
     http://www.quantum-espresso.org/quote

     Parallel version (MPI), running on    56 processors

     MPI processes distributed on     1 nodes
     K-points division:     npool     =       4
     R & G space division:  proc/nbgrp/npool/nimage =      14
     Fft bands division:     nmany     =       1
     Reading input from input.in
     Message from routine read_cards :
     DEPRECATED: no units specified in CELL_PARAMETERS card

     Current dimensions of program PWSCF are:
     Max number of different atomic species (ntypx) = 10
     Max number of k-points (npk) =  40000
     Max angular momentum in pseudopotentials (lmaxx) =  3
     Message from routine volume:
     axis vectors are left-handed

     Subspace diagonalization in iterative solution of the eigenvalue problem:
     a serial algorithm will be used

     Message from routine setup:
     using ibrav=0 with symmetry is DISCOURAGED, use correct ibrav instead
 
     Parallelization info
     --------------------
     sticks:   dense  smooth     PW     G-vecs:    dense   smooth      PW
     Min         196     196     53                 6792     6792     966
     Max         197     197     54                 6794     6794     971
     Sum        2749    2749    745                95097    95097   13539
 


     bravais-lattice index     =            0
     lattice parameter (alat)  =       7.9000  a.u.
     unit-cell volume          =     986.0780 (a.u.)^3
     number of atoms/cell      =           16
     number of atomic types    =            4
     number of electrons       =       192.00
     number of Kohn-Sham states=          120
     kinetic-energy cutoff     =      80.0000  Ry
     charge density cutoff     =     320.0000  Ry
     convergence threshold     =      1.0E-08
     mixing beta               =       0.3000
     number of iterations used =            8  plain     mixing
     Exchange-correlation= PBE
                           (   1   4   3   4   0   0   0)

     celldm(1)=   7.900000  celldm(2)=   0.000000  celldm(3)=   0.000000
     celldm(4)=   0.000000  celldm(5)=   0.000000  celldm(6)=   0.000000

     crystal axes: (cart. coord. in units of alat)
               a(1) = (   1.000000   1.000000   0.000000 )  
               a(2) = (   1.000000   0.000000   1.000000 )  
               a(3) = (   0.000000   1.000000   1.000000 )  

     reciprocal axes: (cart. coord. in units 2 pi/alat)
               b(1) = (  0.500000  0.500000 -0.500000 )  
               b(2) = (  0.500000 -0.500000  0.500000 )  
               b(3) = ( -0.500000  0.500000  0.500000 )  


     PseudoPot. # 1 for Ni read from file:
     ../input/Ni_ONCV_PBE_fr.upf
     MD5 check sum: 1d6d985dc8681998a6b21bb9c8828dba
     Pseudo is Norm-conserving + core correction, Zval = 18.0
     Generated using ONCVPSP code by D. R. Hamann
     Using radial grid of 1372 points,  6 beta functions with: 
                l(1) =   0
                l(2) =   0
                l(3) =   1
                l(4) =   1
                l(5) =   2
                l(6) =   2

     PseudoPot. # 2 for Ni read from file:
     ../input/Ni_ONCV_PBE_fr.upf
     MD5 check sum: 1d6d985dc8681998a6b21bb9c8828dba
     Pseudo is Norm-conserving + core correction, Zval = 18.0
     Generated using ONCVPSP code by D. R. Hamann
     Using radial grid of 1372 points,  6 beta functions with: 
                l(1) =   0
                l(2) =   0
                l(3) =   1
                l(4) =   1
                l(5) =   2
                l(6) =   2

     PseudoPot. # 3 for Ni read from file:
     ../input/Ni_ONCV_PBE_fr.upf
     MD5 check sum: 1d6d985dc8681998a6b21bb9c8828dba
     Pseudo is Norm-conserving + core correction, Zval = 18.0
     Generated using ONCVPSP code by D. R. Hamann
     Using radial grid of 1372 points,  6 beta functions with: 
                l(1) =   0
                l(2) =   0
                l(3) =   1
                l(4) =   1
                l(5) =   2
                l(6) =   2

     PseudoPot. # 4 for O  read from file:
     ../input/O_ONCV_PBE_fr.upf
     MD5 check sum: cce762a7abf7b05e8b0c1bb572795511
     Pseudo is Norm-conserving + core correction, Zval =  6.0
     Generated using ONCVPSP code by D. R. Hamann
     Using radial grid of  936 points,  5 beta functions with: 
                l(1) =   0
                l(2) =   0
                l(3) =   1
                l(4) =   1
                l(5) =   2

     atomic species   valence    mass     pseudopotential
        Ni1           18.00     1.00000     Ni( 1.00)
        Ni2           18.00     1.00000     Ni( 1.00)
        Ni3           18.00     1.00000     Ni( 1.00)
        O1             6.00     1.00000     O ( 1.00)

     Starting magnetic structure 
     atomic species   magnetization
        Ni1          0.500
        Ni2          0.500
        Ni3         -0.500
        O1           0.000


     Simplified LDA+U calculation (l_max = 2) with parameters (eV):
     atomic species    L          U    alpha       J0     beta
        Ni1            2     0.0000   0.0000   0.0000   0.0000
        Ni2            2     0.0000   0.0000   0.0000   0.0000
        Ni3            2     0.0000   0.0000   0.0000   0.0000
        O1             1     0.0000   0.0000   0.0000   0.0000



     12 Sym. Ops., with inversion, found



   Cartesian axes

     site n.     atom                  positions (alat units)
         1           Ni1 tau(   1) = (   0.0000000   0.0000000   0.0000000  )
         2           Ni2 tau(   2) = (   1.0000000   0.5000000   0.5000000  )
         3           Ni2 tau(   3) = (   0.5000000   1.0000000   0.5000000  )
         4           Ni2 tau(   4) = (   0.5000000   0.5000000   1.0000000  )
         5           Ni3 tau(   5) = (   0.5000000   0.5000000   0.0000000  )
         6           Ni3 tau(   6) = (   0.5000000   0.0000000   0.5000000  )
         7           Ni3 tau(   7) = (   0.0000000   0.5000000   0.5000000  )
         8           Ni3 tau(   8) = (   1.0000000   1.0000000   1.0000000  )
         9           O1  tau(   9) = (   0.0000000   0.0000000   0.5000000  )
        10           O1  tau(  10) = (   0.5000000   0.5000000   0.5000000  )
        11           O1  tau(  11) = (   0.0000000   0.5000000   1.0000000  )
        12           O1  tau(  12) = (   0.5000000   0.0000000   1.0000000  )
        13           O1  tau(  13) = (   1.0000000   0.5000000   1.0000000  )
        14           O1  tau(  14) = (   0.5000000   1.0000000   1.0000000  )
        15           O1  tau(  15) = (   0.5000000   0.5000000   1.5000000  )
        16           O1  tau(  16) = (   1.0000000   1.0000000   1.5000000  )

     number of k points=     4  Gaussian smearing, width (Ry)=  0.0100
                       cart. coord. in units 2pi/alat
        k(    1) = (   0.0000000   0.0000000   0.0000000), wk =   0.1250000
        k(    2) = (   0.2500000  -0.2500000  -0.2500000), wk =   0.3750000
        k(    3) = (   0.0000000   0.0000000  -0.5000000), wk =   0.3750000
        k(    4) = (  -0.2500000  -0.2500000  -0.2500000), wk =   0.1250000

     Dense  grid:    95097 G-vectors     FFT dimensions: (  64,  64,  64)

     Estimated max dynamical RAM per process >      33.16 MB

     Estimated total dynamical RAM >       1.81 GB
     Generating pointlists ...
     new r_m :   0.2063 (alat units)  1.6294 (a.u.) for type    1
     new r_m :   0.2063 (alat units)  1.6294 (a.u.) for type    2
     new r_m :   0.2063 (alat units)  1.6294 (a.u.) for type    3
     new r_m :   0.2063 (alat units)  1.6294 (a.u.) for type    4
     Cannot read rho : file not found

     Initial potential from superposition of free atoms

     starting charge  191.99819, renormalised to  192.00000
     Number of +U iterations with fixed ns =  0
     Starting occupations:
 --- enter write_ns ---
 LDA+U parameters:
U( 1)     =  0.00000000
U( 2)     =  0.00000000
U( 3)     =  0.00000000
U( 4)     =  0.00000000
atom    1   Tr[ns(na)] (up, down, total) =   5.00000  3.00000  8.00000
   spin  1
    eigenvalues: 
  1.000  1.000  1.000  1.000  1.000
    eigenvectors:
  1.000  0.000  0.000  0.000  0.000
  0.000  1.000  0.000  0.000  0.000
  0.000  0.000  1.000  0.000  0.000
  0.000  0.000  0.000  1.000  0.000
  0.000  0.000  0.000  0.000  1.000
    occupations:
  1.000  0.000  0.000  0.000  0.000
  0.000  1.000  0.000  0.000  0.000
  0.000  0.000  1.000  0.000  0.000
  0.000  0.000  0.000  1.000  0.000
  0.000  0.000  0.000  0.000  1.000
   spin  2
    eigenvalues: 
  0.600  0.600  0.600  0.600  0.600
    eigenvectors:
  1.000  0.000  0.000  0.000  0.000
  0.000  1.000  0.000  0.000  0.000
  0.000  0.000  1.000  0.000  0.000
  0.000  0.000  0.000  1.000  0.000
  0.000  0.000  0.000  0.000  1.000
    occupations:
  0.600  0.000  0.000  0.000  0.000
  0.000  0.600  0.000  0.000  0.000
  0.000  0.000  0.600  0.000  0.000
  0.000  0.000  0.000  0.600  0.000
  0.000  0.000  0.000  0.000  0.600
atomic mag. moment =   2.00000
atom    2   Tr[ns(na)] (up, down, total) =   5.00000  3.00000  8.00000
   spin  1
    eigenvalues: 
  1.000  1.000  1.000  1.000  1.000
    eigenvectors:
  1.000  0.000  0.000  0.000  0.000
  0.000  1.000  0.000  0.000  0.000
  0.000  0.000  1.000  0.000  0.000
  0.000  0.000  0.000  1.000  0.000
  0.000  0.000  0.000  0.000  1.000
    occupations:
  1.000  0.000  0.000  0.000  0.000
  0.000  1.000  0.000  0.000  0.000
  0.000  0.000  1.000  0.000  0.000
  0.000  0.000  0.000  1.000  0.000
  0.000  0.000  0.000  0.000  1.000
   spin  2
    eigenvalues: 
  0.600  0.600  0.600  0.600  0.600
    eigenvectors:
  1.000  0.000  0.000  0.000  0.000
  0.000  1.000  0.000  0.000  0.000
  0.000  0.000  1.000  0.000  0.000
  0.000  0.000  0.000  1.000  0.000
  0.000  0.000  0.000  0.000  1.000
    occupations:
  0.600  0.000  0.000  0.000  0.000
  0.000  0.600  0.000  0.000  0.000
  0.000  0.000  0.600  0.000  0.000
  0.000  0.000  0.000  0.600  0.000
  0.000  0.000  0.000  0.000  0.600
atomic mag. moment =   2.00000
atom    3   Tr[ns(na)] (up, down, total) =   5.00000  3.00000  8.00000
   spin  1
    eigenvalues: 
  1.000  1.000  1.000  1.000  1.000
    eigenvectors:
  1.000  0.000  0.000  0.000  0.000
  0.000  1.000  0.000  0.000  0.000
  0.000  0.000  1.000  0.000  0.000
  0.000  0.000  0.000  1.000  0.000
  0.000  0.000  0.000  0.000  1.000
    occupations:
  1.000  0.000  0.000  0.000  0.000
  0.000  1.000  0.000  0.000  0.000
  0.000  0.000  1.000  0.000  0.000
  0.000  0.000  0.000  1.000  0.000
  0.000  0.000  0.000  0.000  1.000
   spin  2
    eigenvalues: 
  0.600  0.600  0.600  0.600  0.600
    eigenvectors:
  1.000  0.000  0.000  0.000  0.000
  0.000  1.000  0.000  0.000  0.000
  0.000  0.000  1.000  0.000  0.000
  0.000  0.000  0.000  1.000  0.000
  0.000  0.000  0.000  0.000  1.000
    occupations:
  0.600  0.000  0.000  0.000  0.000
  0.000  0.600  0.000  0.000  0.000
  0.000  0.000  0.600  0.000  0.000
  0.000  0.000  0.000  0.600  0.000
  0.000  0.000  0.000  0.000  0.600
atomic mag. moment =   2.00000
atom    4   Tr[ns(na)] (up, down, total) =   5.00000  3.00000  8.00000
   spin  1
    eigenvalues: 
  1.000  1.000  1.000  1.000  1.000
    eigenvectors:
  1.000  0.000  0.000  0.000  0.000
  0.000  1.000  0.000  0.000  0.000
  0.000  0.000  1.000  0.000  0.000
  0.000  0.000  0.000  1.000  0.000
  0.000  0.000  0.000  0.000  1.000
    occupations:
  1.000  0.000  0.000  0.000  0.000
  0.000  1.000  0.000  0.000  0.000
  0.000  0.000  1.000  0.000  0.000
  0.000  0.000  0.000  1.000  0.000
  0.000  0.000  0.000  0.000  1.000
   spin  2
    eigenvalues: 
  0.600  0.600  0.600  0.600  0.600
    eigenvectors:
  1.000  0.000  0.000  0.000  0.000
  0.000  1.000  0.000  0.000  0.000
  0.000  0.000  1.000  0.000  0.000
  0.000  0.000  0.000  1.000  0.000
  0.000  0.000  0.000  0.000  1.000
    occupations:
  0.600  0.000  0.000  0.000  0.000
  0.000  0.600  0.000  0.000  0.000
  0.000  0.000  0.600  0.000  0.000
  0.000  0.000  0.000  0.600  0.000
  0.000  0.000  0.000  0.000  0.600
atomic mag. moment =   2.00000
atom    5   Tr[ns(na)] (up, down, total) =   3.00000  5.00000  8.00000
   spin  1
    eigenvalues: 
  0.600  0.600  0.600  0.600  0.600
    eigenvectors:
  1.000  0.000  0.000  0.000  0.000
  0.000  1.000  0.000  0.000  0.000
  0.000  0.000  1.000  0.000  0.000
  0.000  0.000  0.000  1.000  0.000
  0.000  0.000  0.000  0.000  1.000
    occupations:
  0.600  0.000  0.000  0.000  0.000
  0.000  0.600  0.000  0.000  0.000
  0.000  0.000  0.600  0.000  0.000
  0.000  0.000  0.000  0.600  0.000
  0.000  0.000  0.000  0.000  0.600
   spin  2
    eigenvalues: 
  1.000  1.000  1.000  1.000  1.000
    eigenvectors:
  1.000  0.000  0.000  0.000  0.000
  0.000  1.000  0.000  0.000  0.000
  0.000  0.000  1.000  0.000  0.000
  0.000  0.000  0.000  1.000  0.000
  0.000  0.000  0.000  0.000  1.000
    occupations:
  1.000  0.000  0.000  0.000  0.000
  0.000  1.000  0.000  0.000  0.000
  0.000  0.000  1.000  0.000  0.000
  0.000  0.000  0.000  1.000  0.000
  0.000  0.000  0.000  0.000  1.000
atomic mag. moment =  -2.00000
atom    6   Tr[ns(na)] (up, down, total) =   3.00000  5.00000  8.00000
   spin  1
    eigenvalues: 
  0.600  0.600  0.600  0.600  0.600
    eigenvectors:
  1.000  0.000  0.000  0.000  0.000
  0.000  1.000  0.000  0.000  0.000
  0.000  0.000  1.000  0.000  0.000
  0.000  0.000  0.000  1.000  0.000
  0.000  0.000  0.000  0.000  1.000
    occupations:
  0.600  0.000  0.000  0.000  0.000
  0.000  0.600  0.000  0.000  0.000
  0.000  0.000  0.600  0.000  0.000
  0.000  0.000  0.000  0.600  0.000
  0.000  0.000  0.000  0.000  0.600
   spin  2
    eigenvalues: 
  1.000  1.000  1.000  1.000  1.000
    eigenvectors:
  1.000  0.000  0.000  0.000  0.000
  0.000  1.000  0.000  0.000  0.000
  0.000  0.000  1.000  0.000  0.000
  0.000  0.000  0.000  1.000  0.000
  0.000  0.000  0.000  0.000  1.000
    occupations:
  1.000  0.000  0.000  0.000  0.000
  0.000  1.000  0.000  0.000  0.000
  0.000  0.000  1.000  0.000  0.000
  0.000  0.000  0.000  1.000  0.000
  0.000  0.000  0.000  0.000  1.000
atomic mag. moment =  -2.00000
atom    7   Tr[ns(na)] (up, down, total) =   3.00000  5.00000  8.00000
   spin  1
    eigenvalues: 
  0.600  0.600  0.600  0.600  0.600
    eigenvectors:
  1.000  0.000  0.000  0.000  0.000
  0.000  1.000  0.000  0.000  0.000
  0.000  0.000  1.000  0.000  0.000
  0.000  0.000  0.000  1.000  0.000
  0.000  0.000  0.000  0.000  1.000
    occupations:
  0.600  0.000  0.000  0.000  0.000
  0.000  0.600  0.000  0.000  0.000
  0.000  0.000  0.600  0.000  0.000
  0.000  0.000  0.000  0.600  0.000
  0.000  0.000  0.000  0.000  0.600
   spin  2
    eigenvalues: 
  1.000  1.000  1.000  1.000  1.000
    eigenvectors:
  1.000  0.000  0.000  0.000  0.000
  0.000  1.000  0.000  0.000  0.000
  0.000  0.000  1.000  0.000  0.000
  0.000  0.000  0.000  1.000  0.000
  0.000  0.000  0.000  0.000  1.000
    occupations:
  1.000  0.000  0.000  0.000  0.000
  0.000  1.000  0.000  0.000  0.000
  0.000  0.000  1.000  0.000  0.000
  0.000  0.000  0.000  1.000  0.000
  0.000  0.000  0.000  0.000  1.000
atomic mag. moment =  -2.00000
atom    8   Tr[ns(na)] (up, down, total) =   3.00000  5.00000  8.00000
   spin  1
    eigenvalues: 
  0.600  0.600  0.600  0.600  0.600
    eigenvectors:
  1.000  0.000  0.000  0.000  0.000
  0.000  1.000  0.000  0.000  0.000
  0.000  0.000  1.000  0.000  0.000
  0.000  0.000  0.000  1.000  0.000
  0.000  0.000  0.000  0.000  1.000
    occupations:
  0.600  0.000  0.000  0.000  0.000
  0.000  0.600  0.000  0.000  0.000
  0.000  0.000  0.600  0.000  0.000
  0.000  0.000  0.000  0.600  0.000
  0.000  0.000  0.000  0.000  0.600
   spin  2
    eigenvalues: 
  1.000  1.000  1.000  1.000  1.000
    eigenvectors:
  1.000  0.000  0.000  0.000  0.000
  0.000  1.000  0.000  0.000  0.000
  0.000  0.000  1.000  0.000  0.000
  0.000  0.000  0.000  1.000  0.000
  0.000  0.000  0.000  0.000  1.000
    occupations:
  1.000  0.000  0.000  0.000  0.000
  0.000  1.000  0.000  0.000  0.000
  0.000  0.000  1.000  0.000  0.000
  0.000  0.000  0.000  1.000  0.000
  0.000  0.000  0.000  0.000  1.000
atomic mag. moment =  -2.00000
atom    9   Tr[ns(na)] (up, down, total) =   2.00000  2.00000  4.00000
   spin  1
    eigenvalues: 
  0.667  0.667  0.667
    eigenvectors:
  1.000  0.000  0.000
  0.000  1.000  0.000
  0.000  0.000  1.000
    occupations:
  0.667  0.000  0.000
  0.000  0.667  0.000
  0.000  0.000  0.667
   spin  2
    eigenvalues: 
  0.667  0.667  0.667
    eigenvectors:
  1.000  0.000  0.000
  0.000  1.000  0.000
  0.000  0.000  1.000
    occupations:
  0.667  0.000  0.000
  0.000  0.667  0.000
  0.000  0.000  0.667
atomic mag. moment =   0.00000
atom   10   Tr[ns(na)] (up, down, total) =   2.00000  2.00000  4.00000
   spin  1
    eigenvalues: 
  0.667  0.667  0.667
    eigenvectors:
  1.000  0.000  0.000
  0.000  1.000  0.000
  0.000  0.000  1.000
    occupations:
  0.667  0.000  0.000
  0.000  0.667  0.000
  0.000  0.000  0.667
   spin  2
    eigenvalues: 
  0.667  0.667  0.667
    eigenvectors:
  1.000  0.000  0.000
  0.000  1.000  0.000
  0.000  0.000  1.000
    occupations:
  0.667  0.000  0.000
  0.000  0.667  0.000
  0.000  0.000  0.667
atomic mag. moment =   0.00000
atom   11   Tr[ns(na)] (up, down, total) =   2.00000  2.00000  4.00000
   spin  1
    eigenvalues: 
  0.667  0.667  0.667
    eigenvectors:
  1.000  0.000  0.000
  0.000  1.000  0.000
  0.000  0.000  1.000
    occupations:
  0.667  0.000  0.000
  0.000  0.667  0.000
  0.000  0.000  0.667
   spin  2
    eigenvalues: 
  0.667  0.667  0.667
    eigenvectors:
  1.000  0.000  0.000
  0.000  1.000  0.000
  0.000  0.000  1.000
    occupations:
  0.667  0.000  0.000
  0.000  0.667  0.000
  0.000  0.000  0.667
atomic mag. moment =   0.00000
atom   12   Tr[ns(na)] (up, down, total) =   2.00000  2.00000  4.00000
   spin  1
    eigenvalues: 
  0.667  0.667  0.667
    eigenvectors:
  1.000  0.000  0.000
  0.000  1.000  0.000
  0.000  0.000  1.000
    occupations:
  0.667  0.000  0.000
  0.000  0.667  0.000
  0.000  0.000  0.667
   spin  2
    eigenvalues: 
  0.667  0.667  0.667
    eigenvectors:
  1.000  0.000  0.000
  0.000  1.000  0.000
  0.000  0.000  1.000
    occupations:
  0.667  0.000  0.000
  0.000  0.667  0.000
  0.000  0.000  0.667
atomic mag. moment =   0.00000
atom   13   Tr[ns(na)] (up, down, total) =   2.00000  2.00000  4.00000
   spin  1
    eigenvalues: 
  0.667  0.667  0.667
    eigenvectors:
  1.000  0.000  0.000
  0.000  1.000  0.000
  0.000  0.000  1.000
    occupations:
  0.667  0.000  0.000
  0.000  0.667  0.000
  0.000  0.000  0.667
   spin  2
    eigenvalues: 
  0.667  0.667  0.667
    eigenvectors:
  1.000  0.000  0.000
  0.000  1.000  0.000
  0.000  0.000  1.000
    occupations:
  0.667  0.000  0.000
  0.000  0.667  0.000
  0.000  0.000  0.667
atomic mag. moment =   0.00000
atom   14   Tr[ns(na)] (up, down, total) =   2.00000  2.00000  4.00000
   spin  1
    eigenvalues: 
  0.667  0.667  0.667
    eigenvectors:
  1.000  0.000  0.000
  0.000  1.000  0.000
  0.000  0.000  1.000
    occupations:
  0.667  0.000  0.000
  0.000  0.667  0.000
  0.000  0.000  0.667
   spin  2
    eigenvalues: 
  0.667  0.667  0.667
    eigenvectors:
  1.000  0.000  0.000
  0.000  1.000  0.000
  0.000  0.000  1.000
    occupations:
  0.667  0.000  0.000
  0.000  0.667  0.000
  0.000  0.000  0.667
atomic mag. moment =   0.00000
atom   15   Tr[ns(na)] (up, down, total) =   2.00000  2.00000  4.00000
   spin  1
    eigenvalues: 
  0.667  0.667  0.667
    eigenvectors:
  1.000  0.000  0.000
  0.000  1.000  0.000
  0.000  0.000  1.000
    occupations:
  0.667  0.000  0.000
  0.000  0.667  0.000
  0.000  0.000  0.667
   spin  2
    eigenvalues: 
  0.667  0.667  0.667
    eigenvectors:
  1.000  0.000  0.000
  0.000  1.000  0.000
  0.000  0.000  1.000
    occupations:
  0.667  0.000  0.000
  0.000  0.667  0.000
  0.000  0.000  0.667
atomic mag. moment =   0.00000
atom   16   Tr[ns(na)] (up, down, total) =   2.00000  2.00000  4.00000
   spin  1
    eigenvalues: 
  0.667  0.667  0.667
    eigenvectors:
  1.000  0.000  0.000
  0.000  1.000  0.000
  0.000  0.000  1.000
    occupations:
  0.667  0.000  0.000
  0.000  0.667  0.000
  0.000  0.000  0.667
   spin  2
    eigenvalues: 
  0.667  0.667  0.667
    eigenvectors:
  1.000  0.000  0.000
  0.000  1.000  0.000
  0.000  0.000  1.000
    occupations:
  0.667  0.000  0.000
  0.000  0.667  0.000
  0.000  0.000  0.667
atomic mag. moment =   0.00000
N of occupied +U levels =   96.000000
 --- exit write_ns ---
 Atomic wfc used for LDA+U Projector are NOT orthogonalized
     Message from routine qexsd_readschema :
     xml data file ./pwscf.save/data-file-schema.xml not found
     Cannot read wfcs: file not found
     Starting wfcs are  112 randomized atomic wfcs +    8 random wfcs

     total cpu time spent up to now is        1.4 secs

     Self-consistent Calculation

     iteration #  1     ecut=    80.00 Ry     beta= 0.30
     Davidson diagonalization with overlap
     ethr =  1.00E-05,  avg # of iterations = 12.1
 In >  weights
 tfixed_occ .OR. ltetra F F T
 --- enter write_ns ---
 LDA+U parameters:
U( 1)     =  0.00000000
U( 2)     =  0.00000000
U( 3)     =  0.00000000
U( 4)     =  0.00000000
atom    1   Tr[ns(na)] (up, down, total) =   4.99318  3.08981  8.08299
   spin  1
    eigenvalues: 
  0.998  0.998  0.999  0.999  0.999
    eigenvectors:
  0.055  0.944  0.000  0.000  0.000
  0.000  0.000  0.333  0.021  0.645
  0.000  0.000  0.333  0.388  0.278
  0.944  0.055  0.000  0.000  0.000
  0.000  0.000  0.333  0.590  0.076
    occupations:
  0.998  0.000  0.000  0.000  0.000
  0.000  0.999 -0.000  0.000  0.000
  0.000 -0.000  0.999 -0.000  0.000
  0.000  0.000 -0.000  0.998 -0.000
  0.000  0.000  0.000 -0.000  0.999
   spin  2
    eigenvalues: 
  0.221  0.221  0.876  0.876  0.896
    eigenvectors:
  0.002  0.997  0.001  0.000  0.000
  0.000  0.000  0.002  0.664  0.333
  0.001  0.000  0.463  0.203  0.333
  0.997  0.002  0.000  0.001  0.000
  0.000  0.001  0.533  0.133  0.333
    occupations:
  0.222  0.008  0.008 -0.000  0.017
  0.008  0.882  0.007  0.014 -0.007
  0.008  0.007  0.882 -0.014 -0.007
 -0.000  0.014 -0.014  0.222 -0.000
  0.017 -0.007 -0.007 -0.000  0.882
atomic mag. moment =   1.90336
atom    2   Tr[ns(na)] (up, down, total) =   4.99318  3.08981  8.08299
   spin  1
    eigenvalues: 
  0.998  0.998  0.999  0.999  0.999
    eigenvectors:
  0.250  0.750  0.000  0.000  0.000
  0.000  0.000  0.334  0.500  0.166
  0.000  0.000  0.333  0.000  0.667
  0.750  0.250  0.000  0.000  0.000
  0.000  0.000  0.334  0.500  0.166
    occupations:
  0.998  0.000  0.000  0.000  0.000
  0.000  0.999 -0.000  0.000  0.000
  0.000 -0.000  0.999 -0.000  0.000
  0.000  0.000 -0.000  0.998  0.000
  0.000  0.000  0.000  0.000  0.999
   spin  2
    eigenvalues: 
  0.221  0.221  0.876  0.876  0.896
    eigenvectors:
  0.749  0.250  0.001  0.000  0.000
  0.000  0.000  0.500  0.167  0.333
  0.000  0.001  0.000  0.666  0.333
  0.250  0.749  0.000  0.001  0.000
  0.000  0.000  0.500  0.167  0.333
    occupations:
  0.222  0.008  0.008 -0.000  0.017
  0.008  0.882  0.007  0.014 -0.007
  0.008  0.007  0.882 -0.014 -0.007
 -0.000  0.014 -0.014  0.222  0.000
  0.017 -0.007 -0.007  0.000  0.882
atomic mag. moment =   1.90336
atom    3   Tr[ns(na)] (up, down, total) =   4.99318  3.08981  8.08299
   spin  1
    eigenvalues: 
  0.998  0.998  0.999  0.999  0.999
    eigenvectors:
  0.250  0.750  0.000  0.000  0.000
  0.000  0.000  0.333  0.000  0.667
  0.000  0.000  0.334  0.500  0.166
  0.750  0.250  0.000  0.000  0.000
  0.000  0.000  0.334  0.500  0.166
    occupations:
  0.998  0.000  0.000 -0.000  0.000
  0.000  0.999 -0.000  0.000  0.000
  0.000 -0.000  0.999 -0.000  0.000
 -0.000  0.000 -0.000  0.998 -0.000
  0.000  0.000  0.000 -0.000  0.999
   spin  2
    eigenvalues: 
  0.221  0.221  0.876  0.876  0.896
    eigenvectors:
  0.749  0.250  0.001  0.000  0.000
  0.000  0.001  0.000  0.666  0.333
  0.000  0.000  0.500  0.167  0.333
  0.250  0.749  0.000  0.001  0.000
  0.000  0.000  0.500  0.167  0.333
    occupations:
  0.222  0.008  0.008  0.000  0.017
  0.008  0.882  0.007  0.014 -0.007
  0.008  0.007  0.882 -0.014 -0.007
  0.000  0.014 -0.014  0.222 -0.000
  0.017 -0.007 -0.007 -0.000  0.882
atomic mag. moment =   1.90336
atom    4   Tr[ns(na)] (up, down, total) =   4.99318  3.08981  8.08299
   spin  1
    eigenvalues: 
  0.998  0.998  0.999  0.999  0.999
    eigenvectors:
  1.000  0.000  0.000  0.000  0.000
  0.000  0.000  0.334  0.500  0.166
  0.000  0.000  0.334  0.500  0.166
  0.000  1.000  0.000  0.000  0.000
  0.000  0.000  0.333  0.000  0.667
    occupations:
  0.998  0.000  0.000  0.000  0.000
  0.000  0.999 -0.000  0.000  0.000
  0.000 -0.000  0.999 -0.000  0.000
  0.000  0.000 -0.000  0.998 -0.000
  0.000  0.000  0.000 -0.000  0.999
   spin  2
    eigenvalues: 
  0.221  0.221  0.876  0.876  0.896
    eigenvectors:
  0.000  0.999  0.000  0.001  0.000
  0.000  0.000  0.500  0.167  0.333
  0.000  0.000  0.500  0.167  0.333
  0.999  0.000  0.001  0.000  0.000
  0.000  0.001  0.000  0.666  0.333
    occupations:
  0.222  0.008  0.008 -0.000  0.017
  0.008  0.882  0.007  0.014 -0.007
  0.008  0.007  0.882 -0.014 -0.007
 -0.000  0.014 -0.014  0.222 -0.000
  0.017 -0.007 -0.007 -0.000  0.882
atomic mag. moment =   1.90336
atom    5   Tr[ns(na)] (up, down, total) =   3.08981  4.99318  8.08299
   spin  1
    eigenvalues: 
  0.221  0.221  0.876  0.876  0.896
    eigenvectors:
  0.000  0.999  0.000  0.001  0.000
  0.000  0.000  0.500  0.167  0.333
  0.000  0.000  0.500  0.167  0.333
  0.999  0.000  0.001  0.000  0.000
  0.000  0.001  0.000  0.666  0.333
    occupations:
  0.222  0.008  0.008 -0.000  0.017
  0.008  0.882  0.007  0.014 -0.007
  0.008  0.007  0.882 -0.014 -0.007
 -0.000  0.014 -0.014  0.222 -0.000
  0.017 -0.007 -0.007 -0.000  0.882
   spin  2
    eigenvalues: 
  0.998  0.998  0.999  0.999  0.999
    eigenvectors:
  1.000  0.000  0.000  0.000  0.000
  0.000  0.000  0.334  0.500  0.166
  0.000  0.000  0.334  0.500  0.166
  0.000  1.000  0.000  0.000  0.000
  0.000  0.000  0.333  0.000  0.667
    occupations:
  0.998  0.000  0.000  0.000  0.000
  0.000  0.999 -0.000  0.000  0.000
  0.000 -0.000  0.999 -0.000  0.000
  0.000  0.000 -0.000  0.998 -0.000
  0.000  0.000  0.000 -0.000  0.999
atomic mag. moment =  -1.90336
atom    6   Tr[ns(na)] (up, down, total) =   3.08981  4.99318  8.08299
   spin  1
    eigenvalues: 
  0.221  0.221  0.876  0.876  0.896
    eigenvectors:
  0.749  0.250  0.001  0.000  0.000
  0.000  0.001  0.000  0.666  0.333
  0.000  0.000  0.500  0.167  0.333
  0.250  0.749  0.000  0.001  0.000
  0.000  0.000  0.500  0.167  0.333
    occupations:
  0.222  0.008  0.008  0.000  0.017
  0.008  0.882  0.007  0.014 -0.007
  0.008  0.007  0.882 -0.014 -0.007
  0.000  0.014 -0.014  0.222 -0.000
  0.017 -0.007 -0.007 -0.000  0.882
   spin  2
    eigenvalues: 
  0.998  0.998  0.999  0.999  0.999
    eigenvectors:
  0.250  0.750  0.000  0.000  0.000
  0.000  0.000  0.333  0.000  0.667
  0.000  0.000  0.334  0.500  0.166
  0.750  0.250  0.000  0.000  0.000
  0.000  0.000  0.334  0.500  0.166
    occupations:
  0.998  0.000  0.000 -0.000  0.000
  0.000  0.999 -0.000  0.000  0.000
  0.000 -0.000  0.999 -0.000  0.000
 -0.000  0.000 -0.000  0.998 -0.000
  0.000  0.000  0.000 -0.000  0.999
atomic mag. moment =  -1.90336
atom    7   Tr[ns(na)] (up, down, total) =   3.08981  4.99318  8.08299
   spin  1
    eigenvalues: 
  0.221  0.221  0.876  0.876  0.896
    eigenvectors:
  0.749  0.250  0.001  0.000  0.000
  0.000  0.000  0.500  0.167  0.333
  0.000  0.001  0.000  0.666  0.333
  0.250  0.749  0.000  0.001  0.000
  0.000  0.000  0.500  0.167  0.333
    occupations:
  0.222  0.008  0.008 -0.000  0.017
  0.008  0.882  0.007  0.014 -0.007
  0.008  0.007  0.882 -0.014 -0.007
 -0.000  0.014 -0.014  0.222  0.000
  0.017 -0.007 -0.007  0.000  0.882
   spin  2
    eigenvalues: 
  0.998  0.998  0.999  0.999  0.999
    eigenvectors:
  0.250  0.750  0.000  0.000  0.000
  0.000  0.000  0.334  0.500  0.166
  0.000  0.000  0.333  0.000  0.667
  0.750  0.250  0.000  0.000  0.000
  0.000  0.000  0.334  0.500  0.166
    occupations:
  0.998  0.000  0.000  0.000  0.000
  0.000  0.999 -0.000  0.000  0.000
  0.000 -0.000  0.999 -0.000  0.000
  0.000  0.000 -0.000  0.998  0.000
  0.000  0.000  0.000  0.000  0.999
atomic mag. moment =  -1.90336
atom    8   Tr[ns(na)] (up, down, total) =   3.08981  4.99318  8.08299
   spin  1
    eigenvalues: 
  0.221  0.221  0.876  0.876  0.896
    eigenvectors:
  0.009  0.990  0.001  0.000  0.000
  0.000  0.000  0.019  0.647  0.333
  0.001  0.000  0.393  0.273  0.333
  0.990  0.009  0.000  0.001  0.000
  0.000  0.001  0.587  0.079  0.333
    occupations:
  0.222  0.008  0.008 -0.000  0.017
  0.008  0.882  0.007  0.014 -0.007
  0.008  0.007  0.882 -0.014 -0.007
 -0.000  0.014 -0.014  0.222 -0.000
  0.017 -0.007 -0.007 -0.000  0.882
   spin  2
    eigenvalues: 
  0.998  0.998  0.999  0.999  0.999
    eigenvectors:
  0.116  0.883  0.000  0.000  0.000
  0.000  0.000  0.333  0.021  0.646
  0.000  0.000  0.333  0.389  0.277
  0.883  0.116  0.000  0.000  0.000
  0.000  0.000  0.333  0.590  0.077
    occupations:
  0.998  0.000  0.000  0.000  0.000
  0.000  0.999 -0.000  0.000  0.000
  0.000 -0.000  0.999 -0.000  0.000
  0.000  0.000 -0.000  0.998 -0.000
  0.000  0.000  0.000 -0.000  0.999
atomic mag. moment =  -1.90337
atom    9   Tr[ns(na)] (up, down, total) =   2.91447  2.91447  5.82893
   spin  1
    eigenvalues: 
  0.971  0.971  0.972
    eigenvectors:
  0.667  0.000  0.333
  0.167  0.500  0.333
  0.167  0.500  0.333
    occupations:
  0.971 -0.000 -0.000
 -0.000  0.971  0.000
 -0.000  0.000  0.971
   spin  2
    eigenvalues: 
  0.971  0.971  0.972
    eigenvectors:
  0.000  0.667  0.333
  0.500  0.167  0.333
  0.500  0.167  0.333
    occupations:
  0.971 -0.000 -0.000
 -0.000  0.971  0.000
 -0.000  0.000  0.971
atomic mag. moment =   0.00000
atom   10   Tr[ns(na)] (up, down, total) =   2.91447  2.91447  5.82893
   spin  1
    eigenvalues: 
  0.971  0.971  0.972
    eigenvectors:
  0.540  0.127  0.333
  0.457  0.210  0.333
  0.003  0.663  0.333
    occupations:
  0.971 -0.000 -0.000
 -0.000  0.971  0.000
 -0.000  0.000  0.971
   spin  2
    eigenvalues: 
  0.971  0.971  0.972
    eigenvectors:
  0.560  0.107  0.333
  0.432  0.235  0.333
  0.008  0.658  0.333
    occupations:
  0.971 -0.000 -0.000
 -0.000  0.971  0.000
 -0.000  0.000  0.971
atomic mag. moment =  -0.00000
atom   11   Tr[ns(na)] (up, down, total) =   2.91447  2.91447  5.82893
   spin  1
    eigenvalues: 
  0.971  0.971  0.972
    eigenvectors:
  0.167  0.500  0.333
  0.167  0.500  0.333
  0.667  0.000  0.333
    occupations:
  0.971 -0.000 -0.000
 -0.000  0.971  0.000
 -0.000  0.000  0.971
   spin  2
    eigenvalues: 
  0.971  0.971  0.972
    eigenvectors:
  0.500  0.167  0.333
  0.500  0.167  0.333
  0.000  0.667  0.333
    occupations:
  0.971 -0.000 -0.000
 -0.000  0.971  0.000
 -0.000  0.000  0.971
atomic mag. moment =   0.00000
atom   12   Tr[ns(na)] (up, down, total) =   2.91447  2.91447  5.82893
   spin  1
    eigenvalues: 
  0.971  0.971  0.972
    eigenvectors:
  0.167  0.500  0.333
  0.667  0.000  0.333
  0.167  0.500  0.333
    occupations:
  0.971 -0.000 -0.000
 -0.000  0.971  0.000
 -0.000  0.000  0.971
   spin  2
    eigenvalues: 
  0.971  0.971  0.972
    eigenvectors:
  0.500  0.167  0.333
  0.000  0.667  0.333
  0.500  0.167  0.333
    occupations:
  0.971 -0.000 -0.000
 -0.000  0.971  0.000
 -0.000  0.000  0.971
atomic mag. moment =   0.00000
atom   13   Tr[ns(na)] (up, down, total) =   2.91447  2.91447  5.82893
   spin  1
    eigenvalues: 
  0.971  0.971  0.972
    eigenvectors:
  0.167  0.500  0.333
  0.167  0.500  0.333
  0.667  0.000  0.333
    occupations:
  0.971 -0.000 -0.000
 -0.000  0.971  0.000
 -0.000  0.000  0.971
   spin  2
    eigenvalues: 
  0.971  0.971  0.972
    eigenvectors:
  0.500  0.167  0.333
  0.500  0.167  0.333
  0.000  0.667  0.333
    occupations:
  0.971 -0.000 -0.000
 -0.000  0.971  0.000
 -0.000  0.000  0.971
atomic mag. moment =   0.00000
atom   14   Tr[ns(na)] (up, down, total) =   2.91447  2.91447  5.82893
   spin  1
    eigenvalues: 
  0.971  0.971  0.972
    eigenvectors:
  0.167  0.500  0.333
  0.667  0.000  0.333
  0.167  0.500  0.333
    occupations:
  0.971 -0.000 -0.000
 -0.000  0.971  0.000
 -0.000  0.000  0.971
   spin  2
    eigenvalues: 
  0.971  0.971  0.972
    eigenvectors:
  0.500  0.167  0.333
  0.000  0.667  0.333
  0.500  0.167  0.333
    occupations:
  0.971 -0.000 -0.000
 -0.000  0.971  0.000
 -0.000  0.000  0.971
atomic mag. moment =   0.00000
atom   15   Tr[ns(na)] (up, down, total) =   2.91447  2.91447  5.82893
   spin  1
    eigenvalues: 
  0.971  0.971  0.972
    eigenvectors:
  0.500  0.167  0.333
  0.500  0.167  0.333
  0.000  0.667  0.333
    occupations:
  0.971 -0.000 -0.000
 -0.000  0.971  0.000
 -0.000  0.000  0.971
   spin  2
    eigenvalues: 
  0.971  0.971  0.972
    eigenvectors:
  0.548  0.119  0.333
  0.447  0.220  0.333
  0.005  0.661  0.333
    occupations:
  0.971 -0.000 -0.000
 -0.000  0.971  0.000
 -0.000  0.000  0.971
atomic mag. moment =  -0.00000
atom   16   Tr[ns(na)] (up, down, total) =   2.91447  2.91447  5.82893
   spin  1
    eigenvalues: 
  0.971  0.971  0.972
    eigenvectors:
  0.667  0.000  0.333
  0.167  0.500  0.333
  0.167  0.500  0.333
    occupations:
  0.971 -0.000 -0.000
 -0.000  0.971  0.000
 -0.000  0.000  0.971
   spin  2
    eigenvalues: 
  0.971  0.971  0.972
    eigenvectors:
  0.000  0.667  0.333
  0.500  0.167  0.333
  0.500  0.167  0.333
    occupations:
  0.971 -0.000 -0.000
 -0.000  0.971  0.000
 -0.000  0.000  0.971
atomic mag. moment =   0.00000
N of occupied +U levels =  111.295366
 --- exit write_ns ---

     total cpu time spent up to now is        2.7 secs

     total energy              =   -2943.74349615 Ry
     estimated scf accuracy    <      14.88437884 Ry

     total magnetization       =    -0.00 Bohr mag/cell
     absolute magnetization    =    18.50 Bohr mag/cell

     iteration #  2     ecut=    80.00 Ry     beta= 0.30
     Davidson diagonalization with overlap
     ethr =  7.75E-03,  avg # of iterations =  1.5
 In >  weights
 tfixed_occ .OR. ltetra F F T

     total cpu time spent up to now is        3.1 secs

     total energy              =   -2946.51723890 Ry
     estimated scf accuracy    <       7.61330672 Ry

     total magnetization       =    -0.00 Bohr mag/cell
     absolute magnetization    =    15.15 Bohr mag/cell

     iteration #  3     ecut=    80.00 Ry     beta= 0.30
     Davidson diagonalization with overlap
     ethr =  3.97E-03,  avg # of iterations =  1.0
 In >  weights
 tfixed_occ .OR. ltetra F F T

     total cpu time spent up to now is        3.5 secs

     total energy              =   -2948.04577655 Ry
     estimated scf accuracy    <       3.14975943 Ry

     total magnetization       =     0.00 Bohr mag/cell
     absolute magnetization    =    15.05 Bohr mag/cell

     iteration #  4     ecut=    80.00 Ry     beta= 0.30
     Davidson diagonalization with overlap
     ethr =  1.64E-03,  avg # of iterations =  2.0
 In >  weights
 tfixed_occ .OR. ltetra F F T

     total cpu time spent up to now is        3.9 secs

     total energy              =   -2948.19584550 Ry
     estimated scf accuracy    <       0.06145183 Ry

     total magnetization       =    -0.00 Bohr mag/cell
     absolute magnetization    =    13.04 Bohr mag/cell

     iteration #  5     ecut=    80.00 Ry     beta= 0.30
     Davidson diagonalization with overlap
     ethr =  3.20E-05,  avg # of iterations =  4.5
 In >  weights
 tfixed_occ .OR. ltetra F F T

     total cpu time spent up to now is        4.6 secs

     total energy              =   -2948.20849532 Ry
     estimated scf accuracy    <       0.01440635 Ry

     total magnetization       =     0.00 Bohr mag/cell
     absolute magnetization    =    12.81 Bohr mag/cell

     iteration #  6     ecut=    80.00 Ry     beta= 0.30
     Davidson diagonalization with overlap
     ethr =  7.50E-06,  avg # of iterations =  2.0
 In >  weights
 tfixed_occ .OR. ltetra F F T

     total cpu time spent up to now is        5.0 secs

     total energy              =   -2948.21012568 Ry
     estimated scf accuracy    <       0.00577132 Ry

     total magnetization       =    -0.00 Bohr mag/cell
     absolute magnetization    =    12.82 Bohr mag/cell

     iteration #  7     ecut=    80.00 Ry     beta= 0.30
     Davidson diagonalization with overlap
     ethr =  3.01E-06,  avg # of iterations =  2.0
 In >  weights
 tfixed_occ .OR. ltetra F F T

     total cpu time spent up to now is        5.5 secs

     total energy              =   -2948.21131237 Ry
     estimated scf accuracy    <       0.00132103 Ry

     total magnetization       =     0.00 Bohr mag/cell
     absolute magnetization    =    12.66 Bohr mag/cell

     iteration #  8     ecut=    80.00 Ry     beta= 0.30
     Davidson diagonalization with overlap
     ethr =  6.88E-07,  avg # of iterations =  2.0
 In >  weights
 tfixed_occ .OR. ltetra F F T

     total cpu time spent up to now is        6.0 secs

     total energy              =   -2948.21165040 Ry
     estimated scf accuracy    <       0.00017098 Ry

     total magnetization       =    -0.00 Bohr mag/cell
     absolute magnetization    =    12.71 Bohr mag/cell

     iteration #  9     ecut=    80.00 Ry     beta= 0.30
     Davidson diagonalization with overlap
     ethr =  8.91E-08,  avg # of iterations =  2.0
 In >  weights
 tfixed_occ .OR. ltetra F F T

     total cpu time spent up to now is        6.4 secs

     total energy              =   -2948.21166680 Ry
     estimated scf accuracy    <       0.00002689 Ry

     total magnetization       =     0.00 Bohr mag/cell
     absolute magnetization    =    12.68 Bohr mag/cell

     iteration # 10     ecut=    80.00 Ry     beta= 0.30
     Davidson diagonalization with overlap
     ethr =  1.40E-08,  avg # of iterations =  2.2
 In >  weights
 tfixed_occ .OR. ltetra F F T

     total cpu time spent up to now is        6.9 secs

     total energy              =   -2948.21167442 Ry
     estimated scf accuracy    <       0.00001160 Ry

     total magnetization       =     0.00 Bohr mag/cell
     absolute magnetization    =    12.67 Bohr mag/cell

     iteration # 11     ecut=    80.00 Ry     beta= 0.30
     Davidson diagonalization with overlap
     ethr =  6.04E-09,  avg # of iterations =  2.0
 In >  weights
 tfixed_occ .OR. ltetra F F T

     total cpu time spent up to now is        7.3 secs

     total energy              =   -2948.21167577 Ry
     estimated scf accuracy    <       0.00000059 Ry

     total magnetization       =    -0.00 Bohr mag/cell
     absolute magnetization    =    12.67 Bohr mag/cell

     iteration # 12     ecut=    80.00 Ry     beta= 0.30
     Davidson diagonalization with overlap
     ethr =  3.07E-10,  avg # of iterations =  2.1
 In >  weights
 tfixed_occ .OR. ltetra F F T

     total cpu time spent up to now is        7.8 secs

     total energy              =   -2948.21167599 Ry
     estimated scf accuracy    <       0.00000019 Ry

     total magnetization       =     0.00 Bohr mag/cell
     absolute magnetization    =    12.67 Bohr mag/cell

     iteration # 13     ecut=    80.00 Ry     beta= 0.30
     Davidson diagonalization with overlap
     ethr =  9.94E-11,  avg # of iterations =  2.0
 In >  weights
 tfixed_occ .OR. ltetra F F T

     total cpu time spent up to now is        8.2 secs

     total energy              =   -2948.21167601 Ry
     estimated scf accuracy    <       0.00000003 Ry

     total magnetization       =    -0.00 Bohr mag/cell
     absolute magnetization    =    12.67 Bohr mag/cell

     iteration # 14     ecut=    80.00 Ry     beta= 0.30
     Davidson diagonalization with overlap
     ethr =  1.71E-11,  avg # of iterations =  1.0
 In >  weights
 tfixed_occ .OR. ltetra F F T

     total cpu time spent up to now is        8.6 secs

     total energy              =   -2948.21167602 Ry
     estimated scf accuracy    <       0.00000002 Ry

     total magnetization       =     0.00 Bohr mag/cell
     absolute magnetization    =    12.67 Bohr mag/cell

     iteration # 15     ecut=    80.00 Ry     beta= 0.30
     Davidson diagonalization with overlap
     ethr =  1.01E-11,  avg # of iterations =  2.0
 In >  weights
 tfixed_occ .OR. ltetra F F T
 
     Magnetic moment per site:
     atom:    1    charge:   15.6821    magn:    1.4272    constr:    0.0000
     atom:    2    charge:   15.6821    magn:    1.4272    constr:    0.0000
     atom:    3    charge:   15.6821    magn:    1.4272    constr:    0.0000
     atom:    4    charge:   15.6821    magn:    1.4272    constr:    0.0000
     atom:    5    charge:   15.6821    magn:   -1.4272    constr:    0.0000
     atom:    6    charge:   15.6821    magn:   -1.4272    constr:    0.0000
     atom:    7    charge:   15.6821    magn:   -1.4272    constr:    0.0000
     atom:    8    charge:   15.6821    magn:   -1.4272    constr:    0.0000
     atom:    9    charge:    5.6849    magn:   -0.0000    constr:    0.0000
     atom:   10    charge:    5.6849    magn:   -0.0000    constr:    0.0000
     atom:   11    charge:    5.6849    magn:   -0.0000    constr:    0.0000
     atom:   12    charge:    5.6849    magn:   -0.0000    constr:    0.0000
     atom:   13    charge:    5.6849    magn:   -0.0000    constr:    0.0000
     atom:   14    charge:    5.6849    magn:   -0.0000    constr:    0.0000
     atom:   15    charge:    5.6849    magn:   -0.0000    constr:    0.0000
     atom:   16    charge:    5.6849    magn:   -0.0000    constr:    0.0000

     total cpu time spent up to now is        9.1 secs

     End of self-consistent calculation
 --- enter write_ns ---
 LDA+U parameters:
U( 1)     =  0.00000000
U( 2)     =  0.00000000
U( 3)     =  0.00000000
U( 4)     =  0.00000000
atom    1   Tr[ns(na)] (up, down, total) =   4.95331  3.64050  8.59382
   spin  1
    eigenvalues: 
  0.983  0.983  0.996  0.996  0.996
    eigenvectors:
  0.021  0.979  0.000  0.000  0.000
  0.000  0.000  0.333  0.011  0.656
  0.000  0.000  0.333  0.567  0.099
  0.979  0.021  0.000  0.000  0.000
  0.000  0.000  0.333  0.422  0.245
    occupations:
  0.983 -0.000 -0.000  0.000 -0.000
 -0.000  0.996 -0.000 -0.000  0.000
 -0.000 -0.000  0.996  0.000  0.000
  0.000 -0.000  0.000  0.983 -0.000
 -0.000  0.000  0.000 -0.000  0.996
   spin  2
    eigenvalues: 
  0.332  0.332  0.992  0.992  0.992
    eigenvectors:
  0.016  0.984  0.000  0.000  0.000
  0.000  0.000  0.000  0.666  0.333
  0.000  0.000  0.484  0.183  0.333
  0.984  0.016  0.000  0.000  0.000
  0.000  0.000  0.515  0.151  0.333
    occupations:
  0.332  0.001  0.001  0.000  0.001
  0.001  0.992  0.000  0.001 -0.000
  0.001  0.000  0.992 -0.001 -0.000
  0.000  0.001 -0.001  0.332 -0.000
  0.001 -0.000 -0.000 -0.000  0.992
atomic mag. moment =   1.31281
atom    2   Tr[ns(na)] (up, down, total) =   4.95331  3.64051  8.59382
   spin  1
    eigenvalues: 
  0.983  0.983  0.996  0.996  0.996
    eigenvectors:
  0.250  0.750  0.000  0.000  0.000
  0.000  0.000  0.333  0.167  0.500
  0.000  0.000  0.334  0.666  0.000
  0.750  0.250  0.000  0.000  0.000
  0.000  0.000  0.333  0.167  0.500
    occupations:
  0.983 -0.000 -0.000  0.000 -0.000
 -0.000  0.996 -0.000 -0.000  0.000
 -0.000 -0.000  0.996  0.000  0.000
  0.000 -0.000  0.000  0.983  0.000
 -0.000  0.000  0.000  0.000  0.996
   spin  2
    eigenvalues: 
  0.332  0.332  0.992  0.992  0.992
    eigenvectors:
  0.750  0.250  0.000  0.000  0.000
  0.000  0.000  0.500  0.167  0.333
  0.000  0.000  0.000  0.667  0.333
  0.250  0.750  0.000  0.000  0.000
  0.000  0.000  0.500  0.167  0.333
    occupations:
  0.332  0.001  0.001 -0.000  0.001
  0.001  0.992  0.000  0.001 -0.000
  0.001  0.000  0.992 -0.001 -0.000
 -0.000  0.001 -0.001  0.332 -0.000
  0.001 -0.000 -0.000 -0.000  0.992
atomic mag. moment =   1.31281
atom    3   Tr[ns(na)] (up, down, total) =   4.95331  3.64051  8.59382
   spin  1
    eigenvalues: 
  0.983  0.983  0.996  0.996  0.996
    eigenvectors:
  0.250  0.750  0.000  0.000  0.000
  0.000  0.000  0.334  0.666  0.000
  0.000  0.000  0.333  0.167  0.500
  0.750  0.250  0.000  0.000  0.000
  0.000  0.000  0.333  0.167  0.500
    occupations:
  0.983 -0.000 -0.000 -0.000 -0.000
 -0.000  0.996 -0.000 -0.000  0.000
 -0.000 -0.000  0.996  0.000  0.000
 -0.000 -0.000  0.000  0.983 -0.000
 -0.000  0.000  0.000 -0.000  0.996
   spin  2
    eigenvalues: 
  0.332  0.332  0.992  0.992  0.992
    eigenvectors:
  0.750  0.250  0.000  0.000  0.000
  0.000  0.000  0.000  0.667  0.333
  0.000  0.000  0.500  0.167  0.333
  0.250  0.750  0.000  0.000  0.000
  0.000  0.000  0.500  0.167  0.333
    occupations:
  0.332  0.001  0.001  0.000  0.001
  0.001  0.992  0.000  0.001 -0.000
  0.001  0.000  0.992 -0.001 -0.000
  0.000  0.001 -0.001  0.332  0.000
  0.001 -0.000 -0.000  0.000  0.992
atomic mag. moment =   1.31281
atom    4   Tr[ns(na)] (up, down, total) =   4.95331  3.64051  8.59382
   spin  1
    eigenvalues: 
  0.983  0.983  0.996  0.996  0.996
    eigenvectors:
  1.000  0.000  0.000  0.000  0.000
  0.000  0.000  0.333  0.167  0.500
  0.000  0.000  0.333  0.167  0.500
  0.000  1.000  0.000  0.000  0.000
  0.000  0.000  0.334  0.666  0.000
    occupations:
  0.983 -0.000 -0.000  0.000 -0.000
 -0.000  0.996 -0.000 -0.000  0.000
 -0.000 -0.000  0.996  0.000  0.000
  0.000 -0.000  0.000  0.983 -0.000
 -0.000  0.000  0.000 -0.000  0.996
   spin  2
    eigenvalues: 
  0.332  0.332  0.992  0.992  0.992
    eigenvectors:
  0.000  1.000  0.000  0.000  0.000
  0.000  0.000  0.500  0.167  0.333
  0.000  0.000  0.500  0.167  0.333
  1.000  0.000  0.000  0.000  0.000
  0.000  0.000  0.000  0.667  0.333
    occupations:
  0.332  0.001  0.001  0.000  0.001
  0.001  0.992  0.000  0.001 -0.000
  0.001  0.000  0.992 -0.001 -0.000
  0.000  0.001 -0.001  0.332 -0.000
  0.001 -0.000 -0.000 -0.000  0.992
atomic mag. moment =   1.31281
atom    5   Tr[ns(na)] (up, down, total) =   3.64051  4.95331  8.59382
   spin  1
    eigenvalues: 
  0.332  0.332  0.992  0.992  0.992
    eigenvectors:
  0.000  1.000  0.000  0.000  0.000
  0.000  0.000  0.167  0.500  0.333
  0.000  0.000  0.167  0.500  0.333
  1.000  0.000  0.000  0.000  0.000
  0.000  0.000  0.667  0.000  0.333
    occupations:
  0.332  0.001  0.001  0.000  0.001
  0.001  0.992  0.000  0.001 -0.000
  0.001  0.000  0.992 -0.001 -0.000
  0.000  0.001 -0.001  0.332 -0.000
  0.001 -0.000 -0.000 -0.000  0.992
   spin  2
    eigenvalues: 
  0.983  0.983  0.996  0.996  0.996
    eigenvectors:
  0.000  1.000  0.000  0.000  0.000
  0.000  0.000  0.333  0.500  0.167
  0.000  0.000  0.333  0.500  0.167
  1.000  0.000  0.000  0.000  0.000
  0.000  0.000  0.333  0.000  0.667
    occupations:
  0.983 -0.000 -0.000  0.000 -0.000
 -0.000  0.996 -0.000 -0.000  0.000
 -0.000 -0.000  0.996  0.000  0.000
  0.000 -0.000  0.000  0.983 -0.000
 -0.000  0.000  0.000 -0.000  0.996
atomic mag. moment =  -1.31280
atom    6   Tr[ns(na)] (up, down, total) =   3.64051  4.95331  8.59382
   spin  1
    eigenvalues: 
  0.332  0.332  0.992  0.992  0.992
    eigenvectors:
  0.750  0.250  0.000  0.000  0.000
  0.000  0.000  0.667  0.000  0.333
  0.000  0.000  0.167  0.500  0.333
  0.250  0.750  0.000  0.000  0.000
  0.000  0.000  0.167  0.500  0.333
    occupations:
  0.332  0.001  0.001  0.000  0.001
  0.001  0.992  0.000  0.001 -0.000
  0.001  0.000  0.992 -0.001 -0.000
  0.000  0.001 -0.001  0.332  0.000
  0.001 -0.000 -0.000  0.000  0.992
   spin  2
    eigenvalues: 
  0.983  0.983  0.996  0.996  0.996
    eigenvectors:
  0.750  0.250  0.000  0.000  0.000
  0.000  0.000  0.333  0.000  0.667
  0.000  0.000  0.333  0.500  0.167
  0.250  0.750  0.000  0.000  0.000
  0.000  0.000  0.333  0.500  0.167
    occupations:
  0.983 -0.000 -0.000  0.000 -0.000
 -0.000  0.996 -0.000 -0.000  0.000
 -0.000 -0.000  0.996  0.000  0.000
  0.000 -0.000  0.000  0.983 -0.000
 -0.000  0.000  0.000 -0.000  0.996
atomic mag. moment =  -1.31280
atom    7   Tr[ns(na)] (up, down, total) =   3.64051  4.95331  8.59382
   spin  1
    eigenvalues: 
  0.332  0.332  0.992  0.992  0.992
    eigenvectors:
  0.750  0.250  0.000  0.000  0.000
  0.000  0.000  0.167  0.500  0.333
  0.000  0.000  0.667  0.000  0.333
  0.250  0.750  0.000  0.000  0.000
  0.000  0.000  0.167  0.500  0.333
    occupations:
  0.332  0.001  0.001 -0.000  0.001
  0.001  0.992  0.000  0.001 -0.000
  0.001  0.000  0.992 -0.001 -0.000
 -0.000  0.001 -0.001  0.332 -0.000
  0.001 -0.000 -0.000 -0.000  0.992
   spin  2
    eigenvalues: 
  0.983  0.983  0.996  0.996  0.996
    eigenvectors:
  0.750  0.250  0.000  0.000  0.000
  0.000  0.000  0.333  0.500  0.167
  0.000  0.000  0.333  0.000  0.667
  0.250  0.750  0.000  0.000  0.000
  0.000  0.000  0.333  0.500  0.167
    occupations:
  0.983 -0.000 -0.000 -0.000 -0.000
 -0.000  0.996 -0.000 -0.000  0.000
 -0.000 -0.000  0.996  0.000  0.000
 -0.000 -0.000  0.000  0.983  0.000
 -0.000  0.000  0.000  0.000  0.996
atomic mag. moment =  -1.31280
atom    8   Tr[ns(na)] (up, down, total) =   3.64051  4.95331  8.59383
   spin  1
    eigenvalues: 
  0.332  0.332  0.992  0.992  0.992
    eigenvectors:
  0.365  0.635  0.000  0.000  0.000
  0.000  0.000  0.002  0.665  0.333
  0.000  0.000  0.467  0.199  0.333
  0.635  0.365  0.000  0.000  0.000
  0.000  0.000  0.531  0.136  0.333
    occupations:
  0.332  0.001  0.001  0.000  0.001
  0.001  0.992  0.000  0.001 -0.000
  0.001  0.000  0.992 -0.001 -0.000
  0.000  0.001 -0.001  0.332 -0.000
  0.001 -0.000 -0.000 -0.000  0.992
   spin  2
    eigenvalues: 
  0.983  0.983  0.996  0.996  0.996
    eigenvectors:
  0.006  0.994  0.000  0.000  0.000
  0.000  0.000  0.333  0.001  0.666
  0.000  0.000  0.333  0.481  0.185
  0.994  0.006  0.000  0.000  0.000
  0.000  0.000  0.333  0.518  0.149
    occupations:
  0.983 -0.000 -0.000  0.000 -0.000
 -0.000  0.996 -0.000 -0.000  0.000
 -0.000 -0.000  0.996  0.000  0.000
  0.000 -0.000  0.000  0.983 -0.000
 -0.000  0.000  0.000 -0.000  0.996
atomic mag. moment =  -1.31280
atom    9   Tr[ns(na)] (up, down, total) =   2.76393  2.76393  5.52786
   spin  1
    eigenvalues: 
  0.921  0.921  0.921
    eigenvectors:
  0.667  0.000  0.333
  0.166  0.500  0.334
  0.166  0.500  0.334
    occupations:
  0.921 -0.000 -0.000
 -0.000  0.921  0.000
 -0.000  0.000  0.921
   spin  2
    eigenvalues: 
  0.921  0.921  0.921
    eigenvectors:
  0.000  0.666  0.334
  0.500  0.167  0.333
  0.500  0.167  0.333
    occupations:
  0.921 -0.000 -0.000
 -0.000  0.921  0.000
 -0.000  0.000  0.921
atomic mag. moment =  -0.00000
atom   10   Tr[ns(na)] (up, down, total) =   2.76393  2.76393  5.52786
   spin  1
    eigenvalues: 
  0.921  0.921  0.921
    eigenvectors:
  0.500  0.167  0.333
  0.500  0.167  0.333
  0.000  0.667  0.333
    occupations:
  0.921 -0.000 -0.000
 -0.000  0.921  0.000
 -0.000  0.000  0.921
   spin  2
    eigenvalues: 
  0.921  0.921  0.921
    eigenvectors:
  0.544  0.123  0.333
  0.452  0.215  0.333
  0.004  0.662  0.333
    occupations:
  0.921 -0.000 -0.000
 -0.000  0.921  0.000
 -0.000  0.000  0.921
atomic mag. moment =  -0.00000
atom   11   Tr[ns(na)] (up, down, total) =   2.76393  2.76393  5.52786
   spin  1
    eigenvalues: 
  0.921  0.921  0.921
    eigenvectors:
  0.166  0.500  0.334
  0.166  0.500  0.334
  0.667  0.000  0.333
    occupations:
  0.921 -0.000 -0.000
 -0.000  0.921  0.000
 -0.000  0.000  0.921
   spin  2
    eigenvalues: 
  0.921  0.921  0.921
    eigenvectors:
  0.500  0.167  0.333
  0.500  0.167  0.333
  0.000  0.666  0.334
    occupations:
  0.921 -0.000 -0.000
 -0.000  0.921  0.000
 -0.000  0.000  0.921
atomic mag. moment =  -0.00000
atom   12   Tr[ns(na)] (up, down, total) =   2.76393  2.76393  5.52786
   spin  1
    eigenvalues: 
  0.921  0.921  0.921
    eigenvectors:
  0.166  0.500  0.334
  0.667  0.000  0.333
  0.166  0.500  0.334
    occupations:
  0.921 -0.000 -0.000
 -0.000  0.921  0.000
 -0.000  0.000  0.921
   spin  2
    eigenvalues: 
  0.921  0.921  0.921
    eigenvectors:
  0.500  0.167  0.333
  0.000  0.666  0.334
  0.500  0.167  0.333
    occupations:
  0.921 -0.000 -0.000
 -0.000  0.921  0.000
 -0.000  0.000  0.921
atomic mag. moment =  -0.00000
atom   13   Tr[ns(na)] (up, down, total) =   2.76393  2.76393  5.52786
   spin  1
    eigenvalues: 
  0.921  0.921  0.921
    eigenvectors:
  0.166  0.500  0.334
  0.166  0.500  0.334
  0.667  0.000  0.333
    occupations:
  0.921 -0.000 -0.000
 -0.000  0.921  0.000
 -0.000  0.000  0.921
   spin  2
    eigenvalues: 
  0.921  0.921  0.921
    eigenvectors:
  0.500  0.167  0.333
  0.500  0.167  0.333
  0.000  0.666  0.334
    occupations:
  0.921 -0.000 -0.000
 -0.000  0.921  0.000
 -0.000  0.000  0.921
atomic mag. moment =  -0.00000
atom   14   Tr[ns(na)] (up, down, total) =   2.76393  2.76393  5.52786
   spin  1
    eigenvalues: 
  0.921  0.921  0.921
    eigenvectors:
  0.166  0.500  0.334
  0.667  0.000  0.333
  0.166  0.500  0.334
    occupations:
  0.921 -0.000 -0.000
 -0.000  0.921  0.000
 -0.000  0.000  0.921
   spin  2
    eigenvalues: 
  0.921  0.921  0.921
    eigenvectors:
  0.500  0.167  0.333
  0.000  0.666  0.334
  0.500  0.167  0.333
    occupations:
  0.921 -0.000 -0.000
 -0.000  0.921  0.000
 -0.000  0.000  0.921
atomic mag. moment =  -0.00000
atom   15   Tr[ns(na)] (up, down, total) =   2.76393  2.76393  5.52786
   spin  1
    eigenvalues: 
  0.921  0.921  0.921
    eigenvectors:
  0.541  0.126  0.333
  0.456  0.211  0.333
  0.004  0.663  0.333
    occupations:
  0.921 -0.000 -0.000
 -0.000  0.921  0.000
 -0.000  0.000  0.921
   spin  2
    eigenvalues: 
  0.921  0.921  0.921
    eigenvectors:
  0.590  0.077  0.333
  0.389  0.277  0.333
  0.021  0.646  0.333
    occupations:
  0.921 -0.000 -0.000
 -0.000  0.921  0.000
 -0.000  0.000  0.921
atomic mag. moment =  -0.00000
atom   16   Tr[ns(na)] (up, down, total) =   2.76393  2.76393  5.52786
   spin  1
    eigenvalues: 
  0.921  0.921  0.921
    eigenvectors:
  0.667  0.000  0.333
  0.166  0.500  0.334
  0.166  0.500  0.334
    occupations:
  0.921 -0.000 -0.000
 -0.000  0.921  0.000
 -0.000  0.000  0.921
   spin  2
    eigenvalues: 
  0.921  0.921  0.921
    eigenvectors:
  0.000  0.666  0.334
  0.500  0.167  0.333
  0.500  0.167  0.333
    occupations:
  0.921 -0.000 -0.000
 -0.000  0.921  0.000
 -0.000  0.000  0.921
atomic mag. moment =  -0.00000
N of occupied +U levels =  112.973446
 --- exit write_ns ---

 ------ SPIN UP ------------


          k = 0.0000 0.0000 0.0000 ( 11935 PWs)   bands (ev):

   -89.7145 -89.7130 -89.7130 -89.7130 -88.1073 -88.1057 -88.1056 -88.1056
   -50.1653 -50.1632 -50.1632 -50.1632 -50.1625 -50.1625 -50.1625 -50.1458
   -50.1458 -50.1458 -50.1395 -50.1395 -48.4286 -48.4286 -48.4286 -48.4205
   -48.4177 -48.4177 -48.4177 -48.4095 -48.4095 -48.4095 -48.4025 -48.4025
    -5.5114  -4.1132  -4.1130  -4.1130  -4.1130  -4.0540  -4.0540  -4.0540
     6.5726   6.5726   6.5726   6.5740   7.8629   7.8629   7.8629   9.0909
     9.0909   9.1007   9.1007   9.1007   9.1299   9.1299   9.1299  10.5095
    10.5095  10.5095  10.5108  10.5108  10.5108  11.3942  11.3942  11.3942
    11.8240  11.8240  11.8263  12.1352  12.1352  12.2682  12.4595  12.4595
    12.5247  12.5247  12.5247  12.8104  12.8104  12.8104  13.0691  13.0691
    13.0691  13.1817  13.1817  13.1817  13.4986  13.4986  13.6269  13.6269
    13.6269  13.7625  13.8516  13.8516  13.8516  13.9691  13.9691  13.9691
    16.1387  16.1387  16.1984  16.1984  16.1984  16.2803  16.2803  16.2803
    16.2913  20.2727  20.2747  20.2747  20.2747  20.9312  20.9312  20.9312
    24.7620  24.7620  24.7620  24.7624  25.2864  25.2864  25.2864  26.9379

          k = 0.2500-0.2500-0.2500 ( 11900 PWs)   bands (ev):

   -89.7138 -89.7138 -89.7129 -89.7129 -88.1064 -88.1064 -88.1055 -88.1055
   -50.1635 -50.1635 -50.1621 -50.1621 -50.1582 -50.1582 -50.1515 -50.1515
   -50.1501 -50.1501 -50.1423 -50.1423 -48.4233 -48.4233 -48.4188 -48.4188
   -48.4174 -48.4174 -48.4159 -48.4159 -48.4142 -48.4142 -48.4058 -48.4057
    -4.8752  -4.8752  -4.0951  -4.0951  -4.0907  -4.0907  -4.0860  -4.0860
     7.5910   7.5910   7.6055   7.6055   7.6176   7.6176   8.6445   8.6445
     8.8781   8.8781   8.9437   8.9437   9.0207   9.0207   9.4197   9.4197
     9.5746   9.5746   9.8774   9.8774  10.0533  10.0533  10.2075  10.2076
    12.2069  12.2070  12.3910  12.3910  12.4616  12.4616  12.5992  12.5993
    12.7339  12.7339  12.8001  12.8001  13.1146  13.1146  13.2255  13.2255
    13.2373  13.2373  13.4510  13.4510  13.5457  13.5457  13.8277  13.8277
    13.8361  13.8361  13.8817  13.8817  13.9161  13.9161  14.0179  14.0179
    15.6299  15.6299  15.6356  15.6356  15.6421  15.6421  15.6530  15.6530
    19.0136  19.0136  22.1917  22.1917  22.2387  22.2387  22.2851  22.2851
    24.4585  24.4585  24.5026  24.5026  24.5495  24.5495  26.3496  26.3496

          k = 0.0000 0.0000-0.5000 ( 11854 PWs)   bands (ev):

   -89.7138 -89.7137 -89.7128 -89.7128 -88.1064 -88.1064 -88.1054 -88.1054
   -50.1637 -50.1637 -50.1616 -50.1616 -50.1578 -50.1578 -50.1512 -50.1512
   -50.1493 -50.1492 -50.1425 -50.1425 -48.4228 -48.4228 -48.4191 -48.4191
   -48.4168 -48.4168 -48.4156 -48.4156 -48.4134 -48.4134 -48.4058 -48.4058
    -4.7399  -4.7399  -4.2433  -4.2433  -4.2433  -4.2433  -3.9431  -3.9431
     7.5658   7.5658   7.5760   7.5760   8.3242   8.3242   8.6416   8.6416
     8.6451   8.6451   8.9664   8.9664   9.2190   9.2190   9.2501   9.2501
     9.2699   9.2699   9.2761   9.2761  10.7094  10.7094  10.7181  10.7181
    11.8171  11.8171  12.5289  12.5289  12.6099  12.6099  12.6208  12.6208
    12.6347  12.6347  12.7454  12.7454  12.9261  12.9262  13.0749  13.0749
    13.1095  13.1095  13.1585  13.1585  13.4935  13.4935  13.5867  13.5867
    13.7311  13.7311  13.8089  13.8089  13.9223  13.9224  13.9239  13.9239
    15.0480  15.0480  15.3114  15.3114  16.1114  16.1114  16.2107  16.2107
    20.2168  20.2168  21.7728  21.7728  21.7729  21.7729  23.2935  23.2935
    25.3870  25.3870  25.3887  25.3887  25.6769  25.6769  25.6816  25.6816

          k =-0.2500-0.2500-0.2500 ( 11900 PWs)   bands (ev):

   -89.7146 -89.7129 -89.7129 -89.7129 -88.1073 -88.1055 -88.1055 -88.1055
   -50.1656 -50.1626 -50.1626 -50.1626 -50.1623 -50.1623 -50.1623 -50.1454
   -50.1454 -50.1454 -50.1392 -50.1392 -48.4280 -48.4280 -48.4280 -48.4214
   -48.4178 -48.4178 -48.4178 -48.4092 -48.4092 -48.4091 -48.4024 -48.4024
    -4.8779  -4.8727  -4.1009  -4.1009  -4.1009  -4.0802  -4.0802  -4.0802
     7.5571   7.5571   7.5571   7.6523   7.6523   7.6523   8.6272   8.6648
     8.8111   8.8111   8.8111   9.2427   9.2427   9.2427   9.3132   9.3132
     9.3132   9.5466   9.5466  10.0144  10.0144  10.0144  10.4369  10.4369
    12.0641  12.0641  12.0641  12.2481  12.2481  12.6903  12.6987  12.6987
    12.6987  13.0257  13.0257  13.0257  13.0843  13.0843  13.0843  13.3090
    13.3090  13.4244  13.4244  13.4244  13.4476  13.6379  13.6379  13.6379
    13.8320  13.8320  13.8320  13.8846  13.8846  13.9871  13.9872  13.9872
    15.6312  15.6312  15.6312  15.6475  15.6475  15.6598  15.6598  15.6598
    18.9466  19.0819  22.1669  22.1669  22.1669  22.3089  22.3089  22.3089
    24.4437  24.4437  24.4437  24.5664  24.5664  24.5664  26.3372  26.3372

 ------ SPIN DOWN ----------


          k = 0.0000 0.0000 0.0000 ( 11935 PWs)   bands (ev):

   -89.7146 -89.7130 -89.7130 -89.7130 -88.1072 -88.1056 -88.1056 -88.1056
   -50.1654 -50.1632 -50.1632 -50.1632 -50.1625 -50.1625 -50.1625 -50.1459
   -50.1459 -50.1459 -50.1395 -50.1395 -48.4285 -48.4285 -48.4285 -48.4205
   -48.4176 -48.4176 -48.4176 -48.4095 -48.4095 -48.4095 -48.4025 -48.4025
    -5.5114  -4.1132  -4.1130  -4.1130  -4.1130  -4.0540  -4.0540  -4.0540
     6.5726   6.5726   6.5726   6.5740   7.8629   7.8629   7.8629   9.0909
     9.0909   9.1007   9.1007   9.1007   9.1299   9.1299   9.1299  10.5095
    10.5095  10.5095  10.5108  10.5108  10.5108  11.3942  11.3942  11.3942
    11.8240  11.8240  11.8263  12.1352  12.1352  12.2682  12.4595  12.4595
    12.5247  12.5247  12.5247  12.8104  12.8104  12.8104  13.0690  13.0690
    13.0691  13.1817  13.1817  13.1817  13.4986  13.4986  13.6269  13.6269
    13.6269  13.7625  13.8516  13.8516  13.8516  13.9691  13.9691  13.9691
    16.1387  16.1387  16.1985  16.1985  16.1985  16.2803  16.2803  16.2803
    16.2913  20.2727  20.2747  20.2747  20.2747  20.9312  20.9312  20.9312
    24.7620  24.7620  24.7620  24.7624  25.2864  25.2864  25.2864  26.9379

          k = 0.2500-0.2500-0.2500 ( 11900 PWs)   bands (ev):

   -89.7138 -89.7138 -89.7130 -89.7130 -88.1063 -88.1063 -88.1055 -88.1055
   -50.1635 -50.1635 -50.1622 -50.1622 -50.1582 -50.1582 -50.1516 -50.1515
   -50.1501 -50.1501 -50.1424 -50.1424 -48.4232 -48.4232 -48.4188 -48.4188
   -48.4174 -48.4174 -48.4158 -48.4158 -48.4142 -48.4142 -48.4057 -48.4057
    -4.8752  -4.8752  -4.0951  -4.0951  -4.0907  -4.0907  -4.0860  -4.0860
     7.5910   7.5910   7.6055   7.6055   7.6176   7.6176   8.6445   8.6445
     8.8781   8.8781   8.9437   8.9437   9.0207   9.0207   9.4197   9.4197
     9.5746   9.5746   9.8774   9.8774  10.0533  10.0533  10.2076  10.2076
    12.2069  12.2069  12.3909  12.3909  12.4616  12.4616  12.5992  12.5992
    12.7339  12.7339  12.8000  12.8000  13.1145  13.1146  13.2255  13.2255
    13.2373  13.2373  13.4510  13.4510  13.5457  13.5457  13.8277  13.8277
    13.8361  13.8361  13.8817  13.8817  13.9161  13.9161  14.0179  14.0179
    15.6299  15.6299  15.6356  15.6356  15.6421  15.6421  15.6530  15.6530
    19.0136  19.0136  22.1917  22.1917  22.2387  22.2387  22.2851  22.2851
    24.4585  24.4585  24.5026  24.5026  24.5495  24.5495  26.3496  26.3496

          k = 0.0000 0.0000-0.5000 ( 11854 PWs)   bands (ev):

   -89.7138 -89.7138 -89.7128 -89.7128 -88.1064 -88.1064 -88.1053 -88.1053
   -50.1637 -50.1637 -50.1617 -50.1617 -50.1578 -50.1578 -50.1512 -50.1512
   -50.1493 -50.1493 -50.1425 -50.1425 -48.4228 -48.4228 -48.4190 -48.4190
   -48.4168 -48.4167 -48.4155 -48.4155 -48.4133 -48.4133 -48.4058 -48.4058
    -4.7399  -4.7399  -4.2433  -4.2433  -4.2433  -4.2433  -3.9431  -3.9431
     7.5658   7.5658   7.5760   7.5760   8.3242   8.3242   8.6416   8.6416
     8.6451   8.6451   8.9664   8.9664   9.2190   9.2190   9.2501   9.2501
     9.2699   9.2699   9.2761   9.2761  10.7094  10.7094  10.7181  10.7181
    11.8171  11.8171  12.5289  12.5289  12.6099  12.6099  12.6207  12.6207
    12.6347  12.6347  12.7453  12.7453  12.9261  12.9261  13.0748  13.0748
    13.1095  13.1095  13.1585  13.1585  13.4935  13.4935  13.5867  13.5867
    13.7312  13.7312  13.8089  13.8089  13.9224  13.9224  13.9239  13.9239
    15.0480  15.0480  15.3114  15.3114  16.1114  16.1114  16.2107  16.2107
    20.2168  20.2168  21.7728  21.7728  21.7729  21.7729  23.2935  23.2935
    25.3870  25.3870  25.3887  25.3887  25.6769  25.6769  25.6816  25.6816

          k =-0.2500-0.2500-0.2500 ( 11900 PWs)   bands (ev):

   -89.7146 -89.7130 -89.7130 -89.7130 -88.1072 -88.1055 -88.1055 -88.1055
   -50.1657 -50.1626 -50.1626 -50.1626 -50.1624 -50.1624 -50.1624 -50.1454
   -50.1454 -50.1454 -50.1393 -50.1393 -48.4280 -48.4280 -48.4280 -48.4213
   -48.4178 -48.4178 -48.4178 -48.4091 -48.4091 -48.4091 -48.4023 -48.4023
    -4.8779  -4.8727  -4.1009  -4.1009  -4.1009  -4.0802  -4.0802  -4.0802
     7.5571   7.5571   7.5571   7.6523   7.6523   7.6523   8.6272   8.6648
     8.8111   8.8111   8.8111   9.2427   9.2427   9.2427   9.3132   9.3132
     9.3132   9.5465   9.5465  10.0144  10.0144  10.0144  10.4369  10.4369
    12.0641  12.0641  12.0641  12.2480  12.2480  12.6903  12.6987  12.6987
    12.6987  13.0257  13.0257  13.0257  13.0843  13.0843  13.0843  13.3091
    13.3091  13.4243  13.4243  13.4243  13.4476  13.6379  13.6379  13.6379
    13.8320  13.8320  13.8320  13.8846  13.8846  13.9872  13.9872  13.9872
    15.6312  15.6312  15.6312  15.6475  15.6475  15.6598  15.6598  15.6598
    18.9466  19.0819  22.1669  22.1669  22.1669  22.3089  22.3089  22.3089
    24.4437  24.4437  24.4437  24.5664  24.5664  24.5664  26.3372  26.3373

     the Fermi energy is    14.5339 ev

!    total energy              =   -2948.21167602 Ry
     estimated scf accuracy    <          1.1E-09 Ry
     smearing contrib. (-TS)   =      -0.00000001 Ry
     internal energy E=F+TS    =   -2948.21167602 Ry

     The total energy is F=E-TS. E is the sum of the following terms:
     one-electron contribution =   -1497.21628249 Ry
     hartree contribution      =     868.80878735 Ry
     xc contribution           =    -409.99896588 Ry
     ewald contribution        =   -1909.80521500 Ry
     Hubbard energy            =       0.00000000 Ry

     total magnetization       =     0.00 Bohr mag/cell
     absolute magnetization    =    12.67 Bohr mag/cell

     convergence has been achieved in  15 iterations

     Writing output data file ./pwscf.save/
 
     init_run     :      0.27s CPU      0.61s WALL (       1 calls)
     electrons    :      7.41s CPU      7.76s WALL (       1 calls)

     Called by init_run:
     wfcinit      :      0.13s CPU      0.34s WALL (       1 calls)
     potinit      :      0.04s CPU      0.09s WALL (       1 calls)
     hinit0       :      0.05s CPU      0.08s WALL (       1 calls)

     Called by electrons:
     c_bands      :      6.29s CPU      6.52s WALL (      15 calls)
     sum_band     :      0.74s CPU      0.76s WALL (      15 calls)
     v_of_rho     :      0.30s CPU      0.34s WALL (      16 calls)
     mix_rho      :      0.07s CPU      0.09s WALL (      15 calls)

     Called by c_bands:
     init_us_2    :      0.10s CPU      0.10s WALL (      64 calls)
     cegterg      :      5.53s CPU      5.75s WALL (      30 calls)

     Called by *egterg:
     cdiaghg      :      1.31s CPU      1.46s WALL (     103 calls)
     h_psi        :      3.16s CPU      3.27s WALL (     105 calls)
     g_psi        :      0.01s CPU      0.02s WALL (      73 calls)

     Called by h_psi:
     h_psi:calbec :      0.34s CPU      0.34s WALL (     105 calls)
     vloc_psi     :      2.07s CPU      2.15s WALL (     105 calls)
     add_vuspsi   :      0.35s CPU      0.35s WALL (     105 calls)
     vhpsi        :      0.36s CPU      0.37s WALL (     105 calls)

     General routines
     calbec       :      0.50s CPU      0.52s WALL (     242 calls)
     fft          :      0.08s CPU      0.11s WALL (     302 calls)
     ffts         :      0.01s CPU      0.01s WALL (      30 calls)
     fftw         :      2.28s CPU      2.35s WALL (   21306 calls)
     davcio       :      0.00s CPU      0.00s WALL (       2 calls)
 
     Parallel routines
     fft_scatt_xy :      0.69s CPU      0.72s WALL (   21638 calls)
     fft_scatt_yz :      0.86s CPU      0.89s WALL (   21638 calls)

     Hubbard U routines
     new_ns       :      0.09s CPU      0.10s WALL (      15 calls)
     new_ns       :      0.09s CPU      0.10s WALL (      15 calls)
     vhpsi        :      0.36s CPU      0.37s WALL (     105 calls)
 
     PWSCF        :      8.15s CPU      9.36s WALL

 
   This run was terminated on:  14:22:59   8Sep2023            

=------------------------------------------------------------------------------=
   JOB DONE.
=------------------------------------------------------------------------------=
