
     Program PWSCF v.6.6 starts on  8Sep2023 at 14:21:54 

     This program is part of the open-source Quantum ESPRESSO suite
     for quantum simulation of materials; please cite
         "P. Giannozzi et al., J. Phys.:Condens. Matter 21 395502 (2009);
         "P. Giannozzi et al., J. Phys.:Condens. Matter 29 465901 (2017);
          URL http://www.quantum-espresso.org", 
     in publications or presentations arising from this work. More details at
     http://www.quantum-espresso.org/quote

     Parallel version (MPI), running on    56 processors

     MPI processes distributed on     1 nodes
     K-points division:     npool     =       4
     R & G space division:  proc/nbgrp/npool/nimage =      14
     Fft bands division:     nmany     =       1
     Reading input from input.in
     Message from routine read_cards :
     DEPRECATED: no units specified in CELL_PARAMETERS card

     Current dimensions of program PWSCF are:
     Max number of different atomic species (ntypx) = 10
     Max number of k-points (npk) =  40000
     Max angular momentum in pseudopotentials (lmaxx) =  3
     Message from routine volume:
     axis vectors are left-handed

     Subspace diagonalization in iterative solution of the eigenvalue problem:
     a serial algorithm will be used

     Message from routine setup:
     using ibrav=0 with symmetry is DISCOURAGED, use correct ibrav instead
 
     Parallelization info
     --------------------
     sticks:   dense  smooth     PW     G-vecs:    dense   smooth      PW
     Min         196     196     53                 6792     6792     966
     Max         197     197     54                 6794     6794     971
     Sum        2749    2749    745                95097    95097   13539
 


     bravais-lattice index     =            0
     lattice parameter (alat)  =       7.9000  a.u.
     unit-cell volume          =     986.0780 (a.u.)^3
     number of atoms/cell      =           16
     number of atomic types    =            4
     number of electrons       =       192.00
     number of Kohn-Sham states=          120
     kinetic-energy cutoff     =      80.0000  Ry
     charge density cutoff     =     320.0000  Ry
     convergence threshold     =      1.0E-08
     mixing beta               =       0.3000
     number of iterations used =            8  plain     mixing
     Exchange-correlation= PBE
                           (   1   4   3   4   0   0   0)

     celldm(1)=   7.900000  celldm(2)=   0.000000  celldm(3)=   0.000000
     celldm(4)=   0.000000  celldm(5)=   0.000000  celldm(6)=   0.000000

     crystal axes: (cart. coord. in units of alat)
               a(1) = (   1.000000   1.000000   0.000000 )  
               a(2) = (   1.000000   0.000000   1.000000 )  
               a(3) = (   0.000000   1.000000   1.000000 )  

     reciprocal axes: (cart. coord. in units 2 pi/alat)
               b(1) = (  0.500000  0.500000 -0.500000 )  
               b(2) = (  0.500000 -0.500000  0.500000 )  
               b(3) = ( -0.500000  0.500000  0.500000 )  


     PseudoPot. # 1 for Ni read from file:
     ../input/Ni_ONCV_PBE_fr.upf
     MD5 check sum: 1d6d985dc8681998a6b21bb9c8828dba
     Pseudo is Norm-conserving + core correction, Zval = 18.0
     Generated using ONCVPSP code by D. R. Hamann
     Using radial grid of 1372 points,  6 beta functions with: 
                l(1) =   0
                l(2) =   0
                l(3) =   1
                l(4) =   1
                l(5) =   2
                l(6) =   2

     PseudoPot. # 2 for Ni read from file:
     ../input/Ni_ONCV_PBE_fr.upf
     MD5 check sum: 1d6d985dc8681998a6b21bb9c8828dba
     Pseudo is Norm-conserving + core correction, Zval = 18.0
     Generated using ONCVPSP code by D. R. Hamann
     Using radial grid of 1372 points,  6 beta functions with: 
                l(1) =   0
                l(2) =   0
                l(3) =   1
                l(4) =   1
                l(5) =   2
                l(6) =   2

     PseudoPot. # 3 for Ni read from file:
     ../input/Ni_ONCV_PBE_fr.upf
     MD5 check sum: 1d6d985dc8681998a6b21bb9c8828dba
     Pseudo is Norm-conserving + core correction, Zval = 18.0
     Generated using ONCVPSP code by D. R. Hamann
     Using radial grid of 1372 points,  6 beta functions with: 
                l(1) =   0
                l(2) =   0
                l(3) =   1
                l(4) =   1
                l(5) =   2
                l(6) =   2

     PseudoPot. # 4 for O  read from file:
     ../input/O_ONCV_PBE_fr.upf
     MD5 check sum: cce762a7abf7b05e8b0c1bb572795511
     Pseudo is Norm-conserving + core correction, Zval =  6.0
     Generated using ONCVPSP code by D. R. Hamann
     Using radial grid of  936 points,  5 beta functions with: 
                l(1) =   0
                l(2) =   0
                l(3) =   1
                l(4) =   1
                l(5) =   2

     atomic species   valence    mass     pseudopotential
        Ni1           18.00     1.00000     Ni( 1.00)
        Ni2           18.00     1.00000     Ni( 1.00)
        Ni3           18.00     1.00000     Ni( 1.00)
        O1             6.00     1.00000     O ( 1.00)

     Starting magnetic structure 
     atomic species   magnetization
        Ni1          0.500
        Ni2          0.500
        Ni3         -0.500
        O1           0.000


     Simplified LDA+U calculation (l_max = 2) with parameters (eV):
     atomic species    L          U    alpha       J0     beta
        Ni1            2     0.0000   0.1000   0.0000   0.0000
        Ni2            2     0.0000   0.0000   0.0000   0.0000
        Ni3            2     0.0000   0.0000   0.0000   0.0000
        O1             1     0.0000   0.0000   0.0000   0.0000



     12 Sym. Ops., with inversion, found



   Cartesian axes

     site n.     atom                  positions (alat units)
         1           Ni1 tau(   1) = (   0.0000000   0.0000000   0.0000000  )
         2           Ni2 tau(   2) = (   1.0000000   0.5000000   0.5000000  )
         3           Ni2 tau(   3) = (   0.5000000   1.0000000   0.5000000  )
         4           Ni2 tau(   4) = (   0.5000000   0.5000000   1.0000000  )
         5           Ni3 tau(   5) = (   0.5000000   0.5000000   0.0000000  )
         6           Ni3 tau(   6) = (   0.5000000   0.0000000   0.5000000  )
         7           Ni3 tau(   7) = (   0.0000000   0.5000000   0.5000000  )
         8           Ni3 tau(   8) = (   1.0000000   1.0000000   1.0000000  )
         9           O1  tau(   9) = (   0.0000000   0.0000000   0.5000000  )
        10           O1  tau(  10) = (   0.5000000   0.5000000   0.5000000  )
        11           O1  tau(  11) = (   0.0000000   0.5000000   1.0000000  )
        12           O1  tau(  12) = (   0.5000000   0.0000000   1.0000000  )
        13           O1  tau(  13) = (   1.0000000   0.5000000   1.0000000  )
        14           O1  tau(  14) = (   0.5000000   1.0000000   1.0000000  )
        15           O1  tau(  15) = (   0.5000000   0.5000000   1.5000000  )
        16           O1  tau(  16) = (   1.0000000   1.0000000   1.5000000  )

     number of k points=     4  Gaussian smearing, width (Ry)=  0.0100
                       cart. coord. in units 2pi/alat
        k(    1) = (   0.0000000   0.0000000   0.0000000), wk =   0.1250000
        k(    2) = (   0.2500000  -0.2500000  -0.2500000), wk =   0.3750000
        k(    3) = (   0.0000000   0.0000000  -0.5000000), wk =   0.3750000
        k(    4) = (  -0.2500000  -0.2500000  -0.2500000), wk =   0.1250000

     Dense  grid:    95097 G-vectors     FFT dimensions: (  64,  64,  64)

     Estimated max dynamical RAM per process >      33.16 MB

     Estimated total dynamical RAM >       1.81 GB
     Generating pointlists ...
     new r_m :   0.2063 (alat units)  1.6294 (a.u.) for type    1
     new r_m :   0.2063 (alat units)  1.6294 (a.u.) for type    2
     new r_m :   0.2063 (alat units)  1.6294 (a.u.) for type    3
     new r_m :   0.2063 (alat units)  1.6294 (a.u.) for type    4
     Cannot read rho : file not found

     Initial potential from superposition of free atoms

     starting charge  191.99819, renormalised to  192.00000
     Number of +U iterations with fixed ns =  0
     Starting occupations:
 --- enter write_ns ---
 LDA+U parameters:
U( 1)     =  0.00000000
alpha( 1) =  0.10000000
U( 2)     =  0.00000000
U( 3)     =  0.00000000
U( 4)     =  0.00000000
atom    1   Tr[ns(na)] (up, down, total) =   5.00000  3.00000  8.00000
   spin  1
    eigenvalues: 
  1.000  1.000  1.000  1.000  1.000
    eigenvectors:
  1.000  0.000  0.000  0.000  0.000
  0.000  1.000  0.000  0.000  0.000
  0.000  0.000  1.000  0.000  0.000
  0.000  0.000  0.000  1.000  0.000
  0.000  0.000  0.000  0.000  1.000
    occupations:
  1.000  0.000  0.000  0.000  0.000
  0.000  1.000  0.000  0.000  0.000
  0.000  0.000  1.000  0.000  0.000
  0.000  0.000  0.000  1.000  0.000
  0.000  0.000  0.000  0.000  1.000
   spin  2
    eigenvalues: 
  0.600  0.600  0.600  0.600  0.600
    eigenvectors:
  1.000  0.000  0.000  0.000  0.000
  0.000  1.000  0.000  0.000  0.000
  0.000  0.000  1.000  0.000  0.000
  0.000  0.000  0.000  1.000  0.000
  0.000  0.000  0.000  0.000  1.000
    occupations:
  0.600  0.000  0.000  0.000  0.000
  0.000  0.600  0.000  0.000  0.000
  0.000  0.000  0.600  0.000  0.000
  0.000  0.000  0.000  0.600  0.000
  0.000  0.000  0.000  0.000  0.600
atomic mag. moment =   2.00000
atom    2   Tr[ns(na)] (up, down, total) =   5.00000  3.00000  8.00000
   spin  1
    eigenvalues: 
  1.000  1.000  1.000  1.000  1.000
    eigenvectors:
  1.000  0.000  0.000  0.000  0.000
  0.000  1.000  0.000  0.000  0.000
  0.000  0.000  1.000  0.000  0.000
  0.000  0.000  0.000  1.000  0.000
  0.000  0.000  0.000  0.000  1.000
    occupations:
  1.000  0.000  0.000  0.000  0.000
  0.000  1.000  0.000  0.000  0.000
  0.000  0.000  1.000  0.000  0.000
  0.000  0.000  0.000  1.000  0.000
  0.000  0.000  0.000  0.000  1.000
   spin  2
    eigenvalues: 
  0.600  0.600  0.600  0.600  0.600
    eigenvectors:
  1.000  0.000  0.000  0.000  0.000
  0.000  1.000  0.000  0.000  0.000
  0.000  0.000  1.000  0.000  0.000
  0.000  0.000  0.000  1.000  0.000
  0.000  0.000  0.000  0.000  1.000
    occupations:
  0.600  0.000  0.000  0.000  0.000
  0.000  0.600  0.000  0.000  0.000
  0.000  0.000  0.600  0.000  0.000
  0.000  0.000  0.000  0.600  0.000
  0.000  0.000  0.000  0.000  0.600
atomic mag. moment =   2.00000
atom    3   Tr[ns(na)] (up, down, total) =   5.00000  3.00000  8.00000
   spin  1
    eigenvalues: 
  1.000  1.000  1.000  1.000  1.000
    eigenvectors:
  1.000  0.000  0.000  0.000  0.000
  0.000  1.000  0.000  0.000  0.000
  0.000  0.000  1.000  0.000  0.000
  0.000  0.000  0.000  1.000  0.000
  0.000  0.000  0.000  0.000  1.000
    occupations:
  1.000  0.000  0.000  0.000  0.000
  0.000  1.000  0.000  0.000  0.000
  0.000  0.000  1.000  0.000  0.000
  0.000  0.000  0.000  1.000  0.000
  0.000  0.000  0.000  0.000  1.000
   spin  2
    eigenvalues: 
  0.600  0.600  0.600  0.600  0.600
    eigenvectors:
  1.000  0.000  0.000  0.000  0.000
  0.000  1.000  0.000  0.000  0.000
  0.000  0.000  1.000  0.000  0.000
  0.000  0.000  0.000  1.000  0.000
  0.000  0.000  0.000  0.000  1.000
    occupations:
  0.600  0.000  0.000  0.000  0.000
  0.000  0.600  0.000  0.000  0.000
  0.000  0.000  0.600  0.000  0.000
  0.000  0.000  0.000  0.600  0.000
  0.000  0.000  0.000  0.000  0.600
atomic mag. moment =   2.00000
atom    4   Tr[ns(na)] (up, down, total) =   5.00000  3.00000  8.00000
   spin  1
    eigenvalues: 
  1.000  1.000  1.000  1.000  1.000
    eigenvectors:
  1.000  0.000  0.000  0.000  0.000
  0.000  1.000  0.000  0.000  0.000
  0.000  0.000  1.000  0.000  0.000
  0.000  0.000  0.000  1.000  0.000
  0.000  0.000  0.000  0.000  1.000
    occupations:
  1.000  0.000  0.000  0.000  0.000
  0.000  1.000  0.000  0.000  0.000
  0.000  0.000  1.000  0.000  0.000
  0.000  0.000  0.000  1.000  0.000
  0.000  0.000  0.000  0.000  1.000
   spin  2
    eigenvalues: 
  0.600  0.600  0.600  0.600  0.600
    eigenvectors:
  1.000  0.000  0.000  0.000  0.000
  0.000  1.000  0.000  0.000  0.000
  0.000  0.000  1.000  0.000  0.000
  0.000  0.000  0.000  1.000  0.000
  0.000  0.000  0.000  0.000  1.000
    occupations:
  0.600  0.000  0.000  0.000  0.000
  0.000  0.600  0.000  0.000  0.000
  0.000  0.000  0.600  0.000  0.000
  0.000  0.000  0.000  0.600  0.000
  0.000  0.000  0.000  0.000  0.600
atomic mag. moment =   2.00000
atom    5   Tr[ns(na)] (up, down, total) =   3.00000  5.00000  8.00000
   spin  1
    eigenvalues: 
  0.600  0.600  0.600  0.600  0.600
    eigenvectors:
  1.000  0.000  0.000  0.000  0.000
  0.000  1.000  0.000  0.000  0.000
  0.000  0.000  1.000  0.000  0.000
  0.000  0.000  0.000  1.000  0.000
  0.000  0.000  0.000  0.000  1.000
    occupations:
  0.600  0.000  0.000  0.000  0.000
  0.000  0.600  0.000  0.000  0.000
  0.000  0.000  0.600  0.000  0.000
  0.000  0.000  0.000  0.600  0.000
  0.000  0.000  0.000  0.000  0.600
   spin  2
    eigenvalues: 
  1.000  1.000  1.000  1.000  1.000
    eigenvectors:
  1.000  0.000  0.000  0.000  0.000
  0.000  1.000  0.000  0.000  0.000
  0.000  0.000  1.000  0.000  0.000
  0.000  0.000  0.000  1.000  0.000
  0.000  0.000  0.000  0.000  1.000
    occupations:
  1.000  0.000  0.000  0.000  0.000
  0.000  1.000  0.000  0.000  0.000
  0.000  0.000  1.000  0.000  0.000
  0.000  0.000  0.000  1.000  0.000
  0.000  0.000  0.000  0.000  1.000
atomic mag. moment =  -2.00000
atom    6   Tr[ns(na)] (up, down, total) =   3.00000  5.00000  8.00000
   spin  1
    eigenvalues: 
  0.600  0.600  0.600  0.600  0.600
    eigenvectors:
  1.000  0.000  0.000  0.000  0.000
  0.000  1.000  0.000  0.000  0.000
  0.000  0.000  1.000  0.000  0.000
  0.000  0.000  0.000  1.000  0.000
  0.000  0.000  0.000  0.000  1.000
    occupations:
  0.600  0.000  0.000  0.000  0.000
  0.000  0.600  0.000  0.000  0.000
  0.000  0.000  0.600  0.000  0.000
  0.000  0.000  0.000  0.600  0.000
  0.000  0.000  0.000  0.000  0.600
   spin  2
    eigenvalues: 
  1.000  1.000  1.000  1.000  1.000
    eigenvectors:
  1.000  0.000  0.000  0.000  0.000
  0.000  1.000  0.000  0.000  0.000
  0.000  0.000  1.000  0.000  0.000
  0.000  0.000  0.000  1.000  0.000
  0.000  0.000  0.000  0.000  1.000
    occupations:
  1.000  0.000  0.000  0.000  0.000
  0.000  1.000  0.000  0.000  0.000
  0.000  0.000  1.000  0.000  0.000
  0.000  0.000  0.000  1.000  0.000
  0.000  0.000  0.000  0.000  1.000
atomic mag. moment =  -2.00000
atom    7   Tr[ns(na)] (up, down, total) =   3.00000  5.00000  8.00000
   spin  1
    eigenvalues: 
  0.600  0.600  0.600  0.600  0.600
    eigenvectors:
  1.000  0.000  0.000  0.000  0.000
  0.000  1.000  0.000  0.000  0.000
  0.000  0.000  1.000  0.000  0.000
  0.000  0.000  0.000  1.000  0.000
  0.000  0.000  0.000  0.000  1.000
    occupations:
  0.600  0.000  0.000  0.000  0.000
  0.000  0.600  0.000  0.000  0.000
  0.000  0.000  0.600  0.000  0.000
  0.000  0.000  0.000  0.600  0.000
  0.000  0.000  0.000  0.000  0.600
   spin  2
    eigenvalues: 
  1.000  1.000  1.000  1.000  1.000
    eigenvectors:
  1.000  0.000  0.000  0.000  0.000
  0.000  1.000  0.000  0.000  0.000
  0.000  0.000  1.000  0.000  0.000
  0.000  0.000  0.000  1.000  0.000
  0.000  0.000  0.000  0.000  1.000
    occupations:
  1.000  0.000  0.000  0.000  0.000
  0.000  1.000  0.000  0.000  0.000
  0.000  0.000  1.000  0.000  0.000
  0.000  0.000  0.000  1.000  0.000
  0.000  0.000  0.000  0.000  1.000
atomic mag. moment =  -2.00000
atom    8   Tr[ns(na)] (up, down, total) =   3.00000  5.00000  8.00000
   spin  1
    eigenvalues: 
  0.600  0.600  0.600  0.600  0.600
    eigenvectors:
  1.000  0.000  0.000  0.000  0.000
  0.000  1.000  0.000  0.000  0.000
  0.000  0.000  1.000  0.000  0.000
  0.000  0.000  0.000  1.000  0.000
  0.000  0.000  0.000  0.000  1.000
    occupations:
  0.600  0.000  0.000  0.000  0.000
  0.000  0.600  0.000  0.000  0.000
  0.000  0.000  0.600  0.000  0.000
  0.000  0.000  0.000  0.600  0.000
  0.000  0.000  0.000  0.000  0.600
   spin  2
    eigenvalues: 
  1.000  1.000  1.000  1.000  1.000
    eigenvectors:
  1.000  0.000  0.000  0.000  0.000
  0.000  1.000  0.000  0.000  0.000
  0.000  0.000  1.000  0.000  0.000
  0.000  0.000  0.000  1.000  0.000
  0.000  0.000  0.000  0.000  1.000
    occupations:
  1.000  0.000  0.000  0.000  0.000
  0.000  1.000  0.000  0.000  0.000
  0.000  0.000  1.000  0.000  0.000
  0.000  0.000  0.000  1.000  0.000
  0.000  0.000  0.000  0.000  1.000
atomic mag. moment =  -2.00000
atom    9   Tr[ns(na)] (up, down, total) =   2.00000  2.00000  4.00000
   spin  1
    eigenvalues: 
  0.667  0.667  0.667
    eigenvectors:
  1.000  0.000  0.000
  0.000  1.000  0.000
  0.000  0.000  1.000
    occupations:
  0.667  0.000  0.000
  0.000  0.667  0.000
  0.000  0.000  0.667
   spin  2
    eigenvalues: 
  0.667  0.667  0.667
    eigenvectors:
  1.000  0.000  0.000
  0.000  1.000  0.000
  0.000  0.000  1.000
    occupations:
  0.667  0.000  0.000
  0.000  0.667  0.000
  0.000  0.000  0.667
atomic mag. moment =   0.00000
atom   10   Tr[ns(na)] (up, down, total) =   2.00000  2.00000  4.00000
   spin  1
    eigenvalues: 
  0.667  0.667  0.667
    eigenvectors:
  1.000  0.000  0.000
  0.000  1.000  0.000
  0.000  0.000  1.000
    occupations:
  0.667  0.000  0.000
  0.000  0.667  0.000
  0.000  0.000  0.667
   spin  2
    eigenvalues: 
  0.667  0.667  0.667
    eigenvectors:
  1.000  0.000  0.000
  0.000  1.000  0.000
  0.000  0.000  1.000
    occupations:
  0.667  0.000  0.000
  0.000  0.667  0.000
  0.000  0.000  0.667
atomic mag. moment =   0.00000
atom   11   Tr[ns(na)] (up, down, total) =   2.00000  2.00000  4.00000
   spin  1
    eigenvalues: 
  0.667  0.667  0.667
    eigenvectors:
  1.000  0.000  0.000
  0.000  1.000  0.000
  0.000  0.000  1.000
    occupations:
  0.667  0.000  0.000
  0.000  0.667  0.000
  0.000  0.000  0.667
   spin  2
    eigenvalues: 
  0.667  0.667  0.667
    eigenvectors:
  1.000  0.000  0.000
  0.000  1.000  0.000
  0.000  0.000  1.000
    occupations:
  0.667  0.000  0.000
  0.000  0.667  0.000
  0.000  0.000  0.667
atomic mag. moment =   0.00000
atom   12   Tr[ns(na)] (up, down, total) =   2.00000  2.00000  4.00000
   spin  1
    eigenvalues: 
  0.667  0.667  0.667
    eigenvectors:
  1.000  0.000  0.000
  0.000  1.000  0.000
  0.000  0.000  1.000
    occupations:
  0.667  0.000  0.000
  0.000  0.667  0.000
  0.000  0.000  0.667
   spin  2
    eigenvalues: 
  0.667  0.667  0.667
    eigenvectors:
  1.000  0.000  0.000
  0.000  1.000  0.000
  0.000  0.000  1.000
    occupations:
  0.667  0.000  0.000
  0.000  0.667  0.000
  0.000  0.000  0.667
atomic mag. moment =   0.00000
atom   13   Tr[ns(na)] (up, down, total) =   2.00000  2.00000  4.00000
   spin  1
    eigenvalues: 
  0.667  0.667  0.667
    eigenvectors:
  1.000  0.000  0.000
  0.000  1.000  0.000
  0.000  0.000  1.000
    occupations:
  0.667  0.000  0.000
  0.000  0.667  0.000
  0.000  0.000  0.667
   spin  2
    eigenvalues: 
  0.667  0.667  0.667
    eigenvectors:
  1.000  0.000  0.000
  0.000  1.000  0.000
  0.000  0.000  1.000
    occupations:
  0.667  0.000  0.000
  0.000  0.667  0.000
  0.000  0.000  0.667
atomic mag. moment =   0.00000
atom   14   Tr[ns(na)] (up, down, total) =   2.00000  2.00000  4.00000
   spin  1
    eigenvalues: 
  0.667  0.667  0.667
    eigenvectors:
  1.000  0.000  0.000
  0.000  1.000  0.000
  0.000  0.000  1.000
    occupations:
  0.667  0.000  0.000
  0.000  0.667  0.000
  0.000  0.000  0.667
   spin  2
    eigenvalues: 
  0.667  0.667  0.667
    eigenvectors:
  1.000  0.000  0.000
  0.000  1.000  0.000
  0.000  0.000  1.000
    occupations:
  0.667  0.000  0.000
  0.000  0.667  0.000
  0.000  0.000  0.667
atomic mag. moment =   0.00000
atom   15   Tr[ns(na)] (up, down, total) =   2.00000  2.00000  4.00000
   spin  1
    eigenvalues: 
  0.667  0.667  0.667
    eigenvectors:
  1.000  0.000  0.000
  0.000  1.000  0.000
  0.000  0.000  1.000
    occupations:
  0.667  0.000  0.000
  0.000  0.667  0.000
  0.000  0.000  0.667
   spin  2
    eigenvalues: 
  0.667  0.667  0.667
    eigenvectors:
  1.000  0.000  0.000
  0.000  1.000  0.000
  0.000  0.000  1.000
    occupations:
  0.667  0.000  0.000
  0.000  0.667  0.000
  0.000  0.000  0.667
atomic mag. moment =   0.00000
atom   16   Tr[ns(na)] (up, down, total) =   2.00000  2.00000  4.00000
   spin  1
    eigenvalues: 
  0.667  0.667  0.667
    eigenvectors:
  1.000  0.000  0.000
  0.000  1.000  0.000
  0.000  0.000  1.000
    occupations:
  0.667  0.000  0.000
  0.000  0.667  0.000
  0.000  0.000  0.667
   spin  2
    eigenvalues: 
  0.667  0.667  0.667
    eigenvectors:
  1.000  0.000  0.000
  0.000  1.000  0.000
  0.000  0.000  1.000
    occupations:
  0.667  0.000  0.000
  0.000  0.667  0.000
  0.000  0.000  0.667
atomic mag. moment =   0.00000
N of occupied +U levels =   96.000000
 --- exit write_ns ---
 Atomic wfc used for LDA+U Projector are NOT orthogonalized
     Message from routine qexsd_readschema :
     xml data file ./pwscf.save/data-file-schema.xml not found
     Cannot read wfcs: file not found
     Starting wfcs are  112 randomized atomic wfcs +    8 random wfcs

     total cpu time spent up to now is        1.4 secs

     Self-consistent Calculation

     iteration #  1     ecut=    80.00 Ry     beta= 0.30
     Davidson diagonalization with overlap
     ethr =  1.00E-05,  avg # of iterations = 13.0
 In >  weights
 tfixed_occ .OR. ltetra F F T
 --- enter write_ns ---
 LDA+U parameters:
U( 1)     =  0.00000000
alpha( 1) =  0.10000000
U( 2)     =  0.00000000
U( 3)     =  0.00000000
U( 4)     =  0.00000000
atom    1   Tr[ns(na)] (up, down, total) =   4.99311  2.92856  7.92167
   spin  1
    eigenvalues: 
  0.998  0.998  0.999  0.999  0.999
    eigenvectors:
  0.003  0.996  0.000  0.000  0.000
  0.000  0.000  0.333  0.000  0.666
  0.000  0.000  0.333  0.504  0.163
  0.996  0.003  0.000  0.000  0.000
  0.000  0.000  0.333  0.496  0.171
    occupations:
  0.998  0.000  0.000  0.000  0.000
  0.000  0.999 -0.000  0.000  0.000
  0.000 -0.000  0.999 -0.000  0.000
  0.000  0.000 -0.000  0.998 -0.000
  0.000  0.000  0.000 -0.000  0.999
   spin  2
    eigenvalues: 
  0.205  0.205  0.831  0.831  0.857
    eigenvectors:
  0.074  0.925  0.001  0.000  0.000
  0.000  0.000  0.060  0.606  0.333
  0.000  0.000  0.304  0.362  0.333
  0.925  0.074  0.000  0.001  0.000
  0.000  0.000  0.635  0.031  0.333
    occupations:
  0.206  0.006  0.006 -0.000  0.012
  0.006  0.839  0.009  0.011 -0.009
  0.006  0.009  0.839 -0.011 -0.009
 -0.000  0.011 -0.011  0.206 -0.000
  0.012 -0.009 -0.009 -0.000  0.839
atomic mag. moment =   2.06454
atom    2   Tr[ns(na)] (up, down, total) =   4.99318  3.09268  8.08586
   spin  1
    eigenvalues: 
  0.998  0.998  0.999  0.999  0.999
    eigenvectors:
  0.250  0.750  0.000  0.000  0.000
  0.000  0.000  0.334  0.500  0.166
  0.000  0.000  0.332  0.000  0.667
  0.750  0.250  0.000  0.000  0.000
  0.000  0.000  0.334  0.500  0.166
    occupations:
  0.998  0.000  0.000  0.000  0.000
  0.000  0.999 -0.000  0.000  0.000
  0.000 -0.000  0.999 -0.000  0.000
  0.000  0.000 -0.000  0.998  0.000
  0.000  0.000  0.000  0.000  0.999
   spin  2
    eigenvalues: 
  0.223  0.224  0.859  0.886  0.901
    eigenvectors:
  0.250  0.749  0.000  0.001  0.000
  0.000  0.001  0.026  0.499  0.474
  0.000  0.000  0.948  0.000  0.052
  0.749  0.250  0.000  0.000  0.000
  0.000  0.001  0.026  0.499  0.474
    occupations:
  0.225  0.009  0.007  0.000  0.017
  0.009  0.892  0.007  0.015 -0.007
  0.007  0.007  0.861 -0.012 -0.007
  0.000  0.015 -0.012  0.224  0.000
  0.017 -0.007 -0.007  0.000  0.892
atomic mag. moment =   1.90050
atom    3   Tr[ns(na)] (up, down, total) =   4.99318  3.09268  8.08586
   spin  1
    eigenvalues: 
  0.998  0.998  0.999  0.999  0.999
    eigenvectors:
  0.250  0.750  0.000  0.000  0.000
  0.000  0.000  0.332  0.000  0.667
  0.000  0.000  0.334  0.500  0.166
  0.750  0.250  0.000  0.000  0.000
  0.000  0.000  0.334  0.500  0.166
    occupations:
  0.998  0.000  0.000 -0.000  0.000
  0.000  0.999 -0.000  0.000  0.000
  0.000 -0.000  0.999 -0.000  0.000
 -0.000  0.000 -0.000  0.998 -0.000
  0.000  0.000  0.000 -0.000  0.999
   spin  2
    eigenvalues: 
  0.223  0.224  0.859  0.886  0.901
    eigenvectors:
  0.250  0.749  0.000  0.001  0.000
  0.000  0.000  0.948  0.000  0.052
  0.000  0.001  0.026  0.499  0.474
  0.749  0.250  0.000  0.000  0.000
  0.000  0.001  0.026  0.499  0.474
    occupations:
  0.225  0.007  0.009 -0.000  0.017
  0.007  0.861  0.007  0.012 -0.007
  0.009  0.007  0.892 -0.015 -0.007
 -0.000  0.012 -0.015  0.224 -0.000
  0.017 -0.007 -0.007 -0.000  0.892
atomic mag. moment =   1.90050
atom    4   Tr[ns(na)] (up, down, total) =   4.99318  3.09268  8.08586
   spin  1
    eigenvalues: 
  0.998  0.998  0.999  0.999  0.999
    eigenvectors:
  1.000  0.000  0.000  0.000  0.000
  0.000  0.000  0.334  0.500  0.166
  0.000  0.000  0.334  0.500  0.166
  0.000  1.000  0.000  0.000  0.000
  0.000  0.000  0.332  0.000  0.667
    occupations:
  0.998  0.000  0.000  0.000  0.000
  0.000  0.999 -0.000  0.000  0.000
  0.000 -0.000  0.999 -0.000  0.000
  0.000  0.000 -0.000  0.998 -0.000
  0.000  0.000  0.000 -0.000  0.999
   spin  2
    eigenvalues: 
  0.223  0.224  0.859  0.886  0.901
    eigenvectors:
  0.999  0.000  0.001  0.000  0.000
  0.000  0.001  0.026  0.499  0.474
  0.000  0.001  0.026  0.499  0.474
  0.000  0.999  0.000  0.001  0.000
  0.000  0.000  0.948  0.000  0.052
    occupations:
  0.224  0.009  0.009 -0.000  0.014
  0.009  0.892  0.007  0.015 -0.007
  0.009  0.007  0.892 -0.015 -0.007
 -0.000  0.015 -0.015  0.225 -0.000
  0.014 -0.007 -0.007 -0.000  0.861
atomic mag. moment =   1.90050
atom    5   Tr[ns(na)] (up, down, total) =   3.12413  4.99318  8.11731
   spin  1
    eigenvalues: 
  0.224  0.224  0.886  0.886  0.904
    eigenvectors:
  0.999  0.000  0.001  0.000  0.000
  0.000  0.001  0.166  0.499  0.333
  0.000  0.001  0.166  0.499  0.333
  0.000  0.999  0.000  0.001  0.000
  0.001  0.000  0.666  0.000  0.333
    occupations:
  0.225  0.009  0.009 -0.000  0.018
  0.009  0.892  0.006  0.015 -0.006
  0.009  0.006  0.892 -0.015 -0.006
 -0.000  0.015 -0.015  0.225 -0.000
  0.018 -0.006 -0.006 -0.000  0.892
   spin  2
    eigenvalues: 
  0.998  0.998  0.999  0.999  0.999
    eigenvectors:
  1.000  0.000  0.000  0.000  0.000
  0.000  0.000  0.299  0.201  0.500
  0.000  0.000  0.299  0.201  0.500
  0.000  1.000  0.000  0.000  0.000
  0.000  0.000  0.403  0.597  0.000
    occupations:
  0.998  0.000  0.000  0.000  0.000
  0.000  0.999 -0.000  0.000  0.000
  0.000 -0.000  0.999 -0.000  0.000
  0.000  0.000 -0.000  0.998 -0.000
  0.000  0.000  0.000 -0.000  0.999
atomic mag. moment =  -1.86905
atom    6   Tr[ns(na)] (up, down, total) =   3.12413  4.99318  8.11731
   spin  1
    eigenvalues: 
  0.224  0.224  0.886  0.886  0.904
    eigenvectors:
  0.250  0.749  0.000  0.001  0.000
  0.001  0.000  0.666  0.000  0.333
  0.000  0.001  0.166  0.499  0.333
  0.749  0.250  0.001  0.000  0.000
  0.000  0.001  0.166  0.499  0.333
    occupations:
  0.225  0.009  0.009 -0.000  0.018
  0.009  0.892  0.006  0.015 -0.006
  0.009  0.006  0.892 -0.015 -0.006
 -0.000  0.015 -0.015  0.225  0.000
  0.018 -0.006 -0.006  0.000  0.892
   spin  2
    eigenvalues: 
  0.998  0.998  0.999  0.999  0.999
    eigenvectors:
  0.250  0.750  0.000  0.000  0.000
  0.000  0.000  0.403  0.597  0.000
  0.000  0.000  0.299  0.201  0.500
  0.750  0.250  0.000  0.000  0.000
  0.000  0.000  0.299  0.201  0.500
    occupations:
  0.998  0.000  0.000 -0.000  0.000
  0.000  0.999 -0.000  0.000  0.000
  0.000 -0.000  0.999 -0.000  0.000
 -0.000  0.000 -0.000  0.998 -0.000
  0.000  0.000  0.000 -0.000  0.999
atomic mag. moment =  -1.86905
atom    7   Tr[ns(na)] (up, down, total) =   3.12413  4.99318  8.11731
   spin  1
    eigenvalues: 
  0.224  0.224  0.886  0.886  0.904
    eigenvectors:
  0.250  0.749  0.000  0.001  0.000
  0.000  0.001  0.166  0.499  0.333
  0.001  0.000  0.666  0.000  0.333
  0.749  0.250  0.001  0.000  0.000
  0.000  0.001  0.166  0.499  0.333
    occupations:
  0.225  0.009  0.009  0.000  0.018
  0.009  0.892  0.006  0.015 -0.006
  0.009  0.006  0.892 -0.015 -0.006
  0.000  0.015 -0.015  0.225 -0.000
  0.018 -0.006 -0.006 -0.000  0.892
   spin  2
    eigenvalues: 
  0.998  0.998  0.999  0.999  0.999
    eigenvectors:
  0.250  0.750  0.000  0.000  0.000
  0.000  0.000  0.299  0.201  0.500
  0.000  0.000  0.403  0.597  0.000
  0.750  0.250  0.000  0.000  0.000
  0.000  0.000  0.299  0.201  0.500
    occupations:
  0.998  0.000  0.000  0.000  0.000
  0.000  0.999 -0.000  0.000  0.000
  0.000 -0.000  0.999 -0.000  0.000
  0.000  0.000 -0.000  0.998  0.000
  0.000  0.000  0.000  0.000  0.999
atomic mag. moment =  -1.86905
atom    8   Tr[ns(na)] (up, down, total) =   3.12419  4.99323  8.11742
   spin  1
    eigenvalues: 
  0.224  0.224  0.886  0.886  0.904
    eigenvectors:
  0.008  0.991  0.001  0.000  0.000
  0.001  0.000  0.040  0.626  0.333
  0.000  0.000  0.342  0.324  0.333
  0.991  0.008  0.000  0.001  0.000
  0.000  0.001  0.617  0.049  0.333
    occupations:
  0.225  0.009  0.009 -0.000  0.018
  0.009  0.892  0.006  0.015 -0.006
  0.009  0.006  0.892 -0.015 -0.006
 -0.000  0.015 -0.015  0.225 -0.000
  0.018 -0.006 -0.006 -0.000  0.892
   spin  2
    eigenvalues: 
  0.998  0.998  0.999  0.999  0.999
    eigenvectors:
  0.001  0.999  0.000  0.000  0.000
  0.000  0.000  0.333  0.002  0.664
  0.000  0.000  0.333  0.466  0.200
  0.999  0.001  0.000  0.000  0.000
  0.000  0.000  0.333  0.531  0.135
    occupations:
  0.998  0.000  0.000  0.000  0.000
  0.000  0.999 -0.000  0.000  0.000
  0.000 -0.000  0.999 -0.000  0.000
  0.000  0.000 -0.000  0.998 -0.000
  0.000  0.000  0.000 -0.000  0.999
atomic mag. moment =  -1.86905
atom    9   Tr[ns(na)] (up, down, total) =   2.91466  2.91459  5.82925
   spin  1
    eigenvalues: 
  0.971  0.971  0.972
    eigenvectors:
  0.667  0.000  0.333
  0.167  0.500  0.333
  0.167  0.500  0.333
    occupations:
  0.972 -0.000 -0.000
 -0.000  0.972  0.000
 -0.000  0.000  0.972
   spin  2
    eigenvalues: 
  0.971  0.971  0.973
    eigenvectors:
  0.000  0.534  0.466
  0.500  0.233  0.267
  0.500  0.233  0.267
    occupations:
  0.972 -0.001 -0.001
 -0.001  0.971  0.000
 -0.001  0.000  0.971
atomic mag. moment =   0.00007
atom   10   Tr[ns(na)] (up, down, total) =   2.91466  2.91460  5.82925
   spin  1
    eigenvalues: 
  0.971  0.971  0.972
    eigenvectors:
  0.532  0.135  0.333
  0.466  0.201  0.333
  0.002  0.665  0.333
    occupations:
  0.972 -0.000 -0.000
 -0.000  0.972  0.000
 -0.000  0.000  0.972
   spin  2
    eigenvalues: 
  0.971  0.971  0.972
    eigenvectors:
  0.500  0.167  0.333
  0.500  0.167  0.333
  0.000  0.667  0.333
    occupations:
  0.972 -0.000 -0.000
 -0.000  0.972  0.000
 -0.000  0.000  0.972
atomic mag. moment =   0.00006
atom   11   Tr[ns(na)] (up, down, total) =   2.91466  2.91459  5.82925
   spin  1
    eigenvalues: 
  0.971  0.971  0.972
    eigenvectors:
  0.167  0.500  0.333
  0.167  0.500  0.333
  0.667  0.000  0.333
    occupations:
  0.972 -0.000 -0.000
 -0.000  0.972  0.000
 -0.000  0.000  0.972
   spin  2
    eigenvalues: 
  0.971  0.971  0.973
    eigenvectors:
  0.500  0.233  0.267
  0.500  0.233  0.267
  0.000  0.534  0.466
    occupations:
  0.971 -0.000 -0.001
 -0.000  0.971  0.001
 -0.001  0.001  0.972
atomic mag. moment =   0.00007
atom   12   Tr[ns(na)] (up, down, total) =   2.91466  2.91459  5.82925
   spin  1
    eigenvalues: 
  0.971  0.971  0.972
    eigenvectors:
  0.167  0.500  0.333
  0.667  0.000  0.333
  0.167  0.500  0.333
    occupations:
  0.972 -0.000 -0.000
 -0.000  0.972  0.000
 -0.000  0.000  0.972
   spin  2
    eigenvalues: 
  0.971  0.971  0.973
    eigenvectors:
  0.500  0.233  0.267
  0.000  0.534  0.466
  0.500  0.233  0.267
    occupations:
  0.971 -0.001 -0.000
 -0.001  0.972  0.001
 -0.000  0.001  0.971
atomic mag. moment =   0.00007
atom   13   Tr[ns(na)] (up, down, total) =   2.91466  2.91459  5.82925
   spin  1
    eigenvalues: 
  0.971  0.971  0.972
    eigenvectors:
  0.167  0.500  0.333
  0.167  0.500  0.333
  0.667  0.000  0.333
    occupations:
  0.972 -0.000 -0.000
 -0.000  0.972  0.000
 -0.000  0.000  0.972
   spin  2
    eigenvalues: 
  0.971  0.971  0.973
    eigenvectors:
  0.500  0.233  0.267
  0.500  0.233  0.267
  0.000  0.534  0.466
    occupations:
  0.971 -0.000 -0.001
 -0.000  0.971  0.001
 -0.001  0.001  0.972
atomic mag. moment =   0.00007
atom   14   Tr[ns(na)] (up, down, total) =   2.91466  2.91459  5.82925
   spin  1
    eigenvalues: 
  0.971  0.971  0.972
    eigenvectors:
  0.167  0.500  0.333
  0.667  0.000  0.333
  0.167  0.500  0.333
    occupations:
  0.972 -0.000 -0.000
 -0.000  0.972  0.000
 -0.000  0.000  0.972
   spin  2
    eigenvalues: 
  0.971  0.971  0.973
    eigenvectors:
  0.500  0.233  0.267
  0.000  0.534  0.466
  0.500  0.233  0.267
    occupations:
  0.971 -0.001 -0.000
 -0.001  0.972  0.001
 -0.000  0.001  0.971
atomic mag. moment =   0.00007
atom   15   Tr[ns(na)] (up, down, total) =   2.91466  2.91460  5.82925
   spin  1
    eigenvalues: 
  0.971  0.971  0.972
    eigenvectors:
  0.555  0.111  0.333
  0.438  0.229  0.333
  0.007  0.660  0.333
    occupations:
  0.972 -0.000 -0.000
 -0.000  0.972  0.000
 -0.000  0.000  0.972
   spin  2
    eigenvalues: 
  0.971  0.971  0.972
    eigenvectors:
  0.533  0.134  0.333
  0.465  0.202  0.333
  0.002  0.664  0.333
    occupations:
  0.972 -0.000 -0.000
 -0.000  0.972  0.000
 -0.000  0.000  0.972
atomic mag. moment =   0.00006
atom   16   Tr[ns(na)] (up, down, total) =   2.91466  2.91459  5.82925
   spin  1
    eigenvalues: 
  0.971  0.971  0.972
    eigenvectors:
  0.667  0.000  0.333
  0.167  0.500  0.333
  0.167  0.500  0.333
    occupations:
  0.972 -0.000 -0.000
 -0.000  0.972  0.000
 -0.000  0.000  0.972
   spin  2
    eigenvalues: 
  0.971  0.971  0.973
    eigenvectors:
  0.000  0.534  0.466
  0.500  0.233  0.267
  0.500  0.233  0.267
    occupations:
  0.972 -0.001 -0.001
 -0.001  0.971  0.000
 -0.001  0.000  0.971
atomic mag. moment =   0.00007
N of occupied +U levels =  111.282586
 --- exit write_ns ---

     total cpu time spent up to now is        2.9 secs

     total energy              =   -2943.66845951 Ry
     estimated scf accuracy    <      14.90645061 Ry

     total magnetization       =     0.31 Bohr mag/cell
     absolute magnetization    =    18.52 Bohr mag/cell

     iteration #  2     ecut=    80.00 Ry     beta= 0.30
     Davidson diagonalization with overlap
     ethr =  7.76E-03,  avg # of iterations =  1.8
 In >  weights
 tfixed_occ .OR. ltetra F F T

     total cpu time spent up to now is        3.3 secs

     total energy              =   -2946.26799990 Ry
     estimated scf accuracy    <       7.79931945 Ry

     total magnetization       =    -0.75 Bohr mag/cell
     absolute magnetization    =    15.15 Bohr mag/cell

     iteration #  3     ecut=    80.00 Ry     beta= 0.30
     Davidson diagonalization with overlap
     ethr =  4.06E-03,  avg # of iterations =  1.4
 In >  weights
 tfixed_occ .OR. ltetra F F T

     total cpu time spent up to now is        3.7 secs

     total energy              =   -2945.84240541 Ry
     estimated scf accuracy    <      11.24113706 Ry

     total magnetization       =     5.09 Bohr mag/cell
     absolute magnetization    =    15.33 Bohr mag/cell

     iteration #  4     ecut=    80.00 Ry     beta= 0.30
     Davidson diagonalization with overlap
     ethr =  4.06E-03,  avg # of iterations =  1.5
 In >  weights
 tfixed_occ .OR. ltetra F F T

     total cpu time spent up to now is        4.2 secs

     total energy              =   -2947.25381498 Ry
     estimated scf accuracy    <      11.41836450 Ry

     total magnetization       =    -5.26 Bohr mag/cell
     absolute magnetization    =    15.53 Bohr mag/cell

     iteration #  5     ecut=    80.00 Ry     beta= 0.30
     Davidson diagonalization with overlap
     ethr =  4.06E-03,  avg # of iterations =  1.6
 In >  weights
 tfixed_occ .OR. ltetra F F T

     total cpu time spent up to now is        4.6 secs

     total energy              =   -2947.90463837 Ry
     estimated scf accuracy    <      11.78747074 Ry

     total magnetization       =    -3.97 Bohr mag/cell
     absolute magnetization    =    14.53 Bohr mag/cell

     iteration #  6     ecut=    80.00 Ry     beta= 0.30
     Davidson diagonalization with overlap
     ethr =  4.06E-03,  avg # of iterations =  1.0
 In >  weights
 tfixed_occ .OR. ltetra F F T

     total cpu time spent up to now is        5.0 secs

     total energy              =   -2948.07570269 Ry
     estimated scf accuracy    <       6.84709626 Ry

     total magnetization       =     2.90 Bohr mag/cell
     absolute magnetization    =    12.81 Bohr mag/cell

     iteration #  7     ecut=    80.00 Ry     beta= 0.30
     Davidson diagonalization with overlap
     ethr =  3.57E-03,  avg # of iterations =  1.0
 In >  weights
 tfixed_occ .OR. ltetra F F T

     total cpu time spent up to now is        5.4 secs

     total energy              =   -2948.10101651 Ry
     estimated scf accuracy    <       1.38414927 Ry

     total magnetization       =    -0.32 Bohr mag/cell
     absolute magnetization    =    12.25 Bohr mag/cell

     iteration #  8     ecut=    80.00 Ry     beta= 0.30
     Davidson diagonalization with overlap
     ethr =  7.21E-04,  avg # of iterations =  1.0
 In >  weights
 tfixed_occ .OR. ltetra F F T

     total cpu time spent up to now is        5.8 secs

     total energy              =   -2948.14088146 Ry
     estimated scf accuracy    <       0.26446175 Ry

     total magnetization       =    -0.28 Bohr mag/cell
     absolute magnetization    =    12.51 Bohr mag/cell

     iteration #  9     ecut=    80.00 Ry     beta= 0.30
     Davidson diagonalization with overlap
     ethr =  1.38E-04,  avg # of iterations =  1.2
 In >  weights
 tfixed_occ .OR. ltetra F F T

     total cpu time spent up to now is        6.2 secs

     total energy              =   -2948.15239348 Ry
     estimated scf accuracy    <       0.11565689 Ry

     total magnetization       =    -0.05 Bohr mag/cell
     absolute magnetization    =    12.46 Bohr mag/cell

     iteration # 10     ecut=    80.00 Ry     beta= 0.30
     Davidson diagonalization with overlap
     ethr =  6.02E-05,  avg # of iterations =  1.1
 In >  weights
 tfixed_occ .OR. ltetra F F T

     total cpu time spent up to now is        6.6 secs

     total energy              =   -2948.14969431 Ry
     estimated scf accuracy    <       0.09467884 Ry

     total magnetization       =    -0.01 Bohr mag/cell
     absolute magnetization    =    12.48 Bohr mag/cell

     iteration # 11     ecut=    80.00 Ry     beta= 0.30
     Davidson diagonalization with overlap
     ethr =  4.93E-05,  avg # of iterations =  2.5
 In >  weights
 tfixed_occ .OR. ltetra F F T

     total cpu time spent up to now is        7.1 secs

     total energy              =   -2948.14941932 Ry
     estimated scf accuracy    <       0.03219666 Ry

     total magnetization       =     0.00 Bohr mag/cell
     absolute magnetization    =    12.66 Bohr mag/cell

     iteration # 12     ecut=    80.00 Ry     beta= 0.30
     Davidson diagonalization with overlap
     ethr =  1.68E-05,  avg # of iterations =  3.1
 In >  weights
 tfixed_occ .OR. ltetra F F T

     total cpu time spent up to now is        7.6 secs

     total energy              =   -2948.14881664 Ry
     estimated scf accuracy    <       0.01072000 Ry

     total magnetization       =     0.00 Bohr mag/cell
     absolute magnetization    =    12.71 Bohr mag/cell

     iteration # 13     ecut=    80.00 Ry     beta= 0.30
     Davidson diagonalization with overlap
     ethr =  5.58E-06,  avg # of iterations =  2.1
 In >  weights
 tfixed_occ .OR. ltetra F F T

     total cpu time spent up to now is        8.1 secs

     total energy              =   -2948.14877173 Ry
     estimated scf accuracy    <       0.00346591 Ry

     total magnetization       =     0.00 Bohr mag/cell
     absolute magnetization    =    12.69 Bohr mag/cell

     iteration # 14     ecut=    80.00 Ry     beta= 0.30
     Davidson diagonalization with overlap
     ethr =  1.81E-06,  avg # of iterations =  4.4
 In >  weights
 tfixed_occ .OR. ltetra F F T

     total cpu time spent up to now is        8.7 secs

     total energy              =   -2948.14838347 Ry
     estimated scf accuracy    <       0.00187070 Ry

     total magnetization       =     0.00 Bohr mag/cell
     absolute magnetization    =    12.69 Bohr mag/cell

     iteration # 15     ecut=    80.00 Ry     beta= 0.30
     Davidson diagonalization with overlap
     ethr =  9.74E-07,  avg # of iterations =  2.5
 In >  weights
 tfixed_occ .OR. ltetra F F T

     total cpu time spent up to now is        9.1 secs

     total energy              =   -2948.14852144 Ry
     estimated scf accuracy    <       0.00028154 Ry

     total magnetization       =     0.00 Bohr mag/cell
     absolute magnetization    =    12.68 Bohr mag/cell

     iteration # 16     ecut=    80.00 Ry     beta= 0.30
     Davidson diagonalization with overlap
     ethr =  1.47E-07,  avg # of iterations =  2.0
 In >  weights
 tfixed_occ .OR. ltetra F F T

     total cpu time spent up to now is        9.6 secs

     total energy              =   -2948.14854283 Ry
     estimated scf accuracy    <       0.00004797 Ry

     total magnetization       =     0.00 Bohr mag/cell
     absolute magnetization    =    12.68 Bohr mag/cell

     iteration # 17     ecut=    80.00 Ry     beta= 0.30
     Davidson diagonalization with overlap
     ethr =  2.50E-08,  avg # of iterations =  2.0
 In >  weights
 tfixed_occ .OR. ltetra F F T

     total cpu time spent up to now is       10.0 secs

     total energy              =   -2948.14854526 Ry
     estimated scf accuracy    <       0.00000868 Ry

     total magnetization       =     0.00 Bohr mag/cell
     absolute magnetization    =    12.68 Bohr mag/cell

     iteration # 18     ecut=    80.00 Ry     beta= 0.30
     Davidson diagonalization with overlap
     ethr =  4.52E-09,  avg # of iterations =  2.0
 In >  weights
 tfixed_occ .OR. ltetra F F T

     total cpu time spent up to now is       10.5 secs

     total energy              =   -2948.14854697 Ry
     estimated scf accuracy    <       0.00000232 Ry

     total magnetization       =     0.00 Bohr mag/cell
     absolute magnetization    =    12.68 Bohr mag/cell

     iteration # 19     ecut=    80.00 Ry     beta= 0.30
     Davidson diagonalization with overlap
     ethr =  1.21E-09,  avg # of iterations =  2.0
 In >  weights
 tfixed_occ .OR. ltetra F F T

     total cpu time spent up to now is       10.9 secs

     total energy              =   -2948.14854728 Ry
     estimated scf accuracy    <       0.00000018 Ry

     total magnetization       =     0.00 Bohr mag/cell
     absolute magnetization    =    12.68 Bohr mag/cell

     iteration # 20     ecut=    80.00 Ry     beta= 0.30
     Davidson diagonalization with overlap
     ethr =  9.51E-11,  avg # of iterations =  2.0
 In >  weights
 tfixed_occ .OR. ltetra F F T

     total cpu time spent up to now is       11.4 secs

     total energy              =   -2948.14854731 Ry
     estimated scf accuracy    <       0.00000005 Ry

     total magnetization       =     0.00 Bohr mag/cell
     absolute magnetization    =    12.68 Bohr mag/cell

     iteration # 21     ecut=    80.00 Ry     beta= 0.30
     Davidson diagonalization with overlap
     ethr =  2.86E-11,  avg # of iterations =  1.9
 In >  weights
 tfixed_occ .OR. ltetra F F T
 
     Magnetic moment per site:
     atom:    1    charge:   15.6773    magn:    1.4363    constr:    0.0000
     atom:    2    charge:   15.6822    magn:    1.4270    constr:    0.0000
     atom:    3    charge:   15.6822    magn:    1.4270    constr:    0.0000
     atom:    4    charge:   15.6822    magn:    1.4270    constr:    0.0000
     atom:    5    charge:   15.6822    magn:   -1.4271    constr:    0.0000
     atom:    6    charge:   15.6822    magn:   -1.4271    constr:    0.0000
     atom:    7    charge:   15.6822    magn:   -1.4271    constr:    0.0000
     atom:    8    charge:   15.6821    magn:   -1.4293    constr:    0.0000
     atom:    9    charge:    5.6854    magn:   -0.0011    constr:    0.0000
     atom:   10    charge:    5.6849    magn:   -0.0000    constr:    0.0000
     atom:   11    charge:    5.6854    magn:   -0.0011    constr:    0.0000
     atom:   12    charge:    5.6854    magn:   -0.0011    constr:    0.0000
     atom:   13    charge:    5.6854    magn:   -0.0011    constr:    0.0000
     atom:   14    charge:    5.6854    magn:   -0.0011    constr:    0.0000
     atom:   15    charge:    5.6849    magn:   -0.0000    constr:    0.0000
     atom:   16    charge:    5.6854    magn:   -0.0011    constr:    0.0000

     total cpu time spent up to now is       11.8 secs

     End of self-consistent calculation
 --- enter write_ns ---
 LDA+U parameters:
U( 1)     =  0.00000000
alpha( 1) =  0.10000000
U( 2)     =  0.00000000
U( 3)     =  0.00000000
U( 4)     =  0.00000000
atom    1   Tr[ns(na)] (up, down, total) =   4.95351  3.63086  8.58437
   spin  1
    eigenvalues: 
  0.983  0.983  0.996  0.996  0.996
    eigenvectors:
  0.003  0.997  0.000  0.000  0.000
  0.000  0.000  0.333  0.014  0.653
  0.000  0.000  0.333  0.411  0.256
  0.997  0.003  0.000  0.000  0.000
  0.000  0.000  0.333  0.576  0.091
    occupations:
  0.983 -0.000 -0.000  0.000 -0.000
 -0.000  0.996 -0.000 -0.000  0.000
 -0.000 -0.000  0.996  0.000  0.000
  0.000 -0.000  0.000  0.983 -0.000
 -0.000  0.000  0.000 -0.000  0.996
   spin  2
    eigenvalues: 
  0.327  0.327  0.992  0.992  0.992
    eigenvectors:
  0.030  0.970  0.000  0.000  0.000
  0.000  0.000  0.000  0.667  0.333
  0.000  0.000  0.504  0.163  0.333
  0.970  0.030  0.000  0.000  0.000
  0.000  0.000  0.496  0.171  0.333
    occupations:
  0.327  0.001  0.001  0.000  0.001
  0.001  0.992  0.000  0.001 -0.000
  0.001  0.000  0.992 -0.001 -0.000
  0.000  0.001 -0.001  0.327 -0.000
  0.001 -0.000 -0.000 -0.000  0.992
atomic mag. moment =   1.32265
atom    2   Tr[ns(na)] (up, down, total) =   4.95329  3.64066  8.59395
   spin  1
    eigenvalues: 
  0.983  0.983  0.996  0.996  0.996
    eigenvectors:
  0.750  0.250  0.000  0.000  0.000
  0.000  0.000  0.308  0.500  0.192
  0.000  0.000  0.385  0.000  0.615
  0.250  0.750  0.000  0.000  0.000
  0.000  0.000  0.308  0.500  0.192
    occupations:
  0.983 -0.000 -0.000 -0.000 -0.000
 -0.000  0.996 -0.000 -0.000  0.000
 -0.000 -0.000  0.996  0.000  0.000
 -0.000 -0.000  0.000  0.983  0.000
 -0.000  0.000  0.000  0.000  0.996
   spin  2
    eigenvalues: 
  0.332  0.332  0.992  0.992  0.992
    eigenvectors:
  0.750  0.250  0.000  0.000  0.000
  0.000  0.000  0.500  0.360  0.140
  0.000  0.000  0.000  0.279  0.721
  0.250  0.750  0.000  0.000  0.000
  0.000  0.000  0.500  0.360  0.140
    occupations:
  0.332  0.001  0.001 -0.000  0.001
  0.001  0.992  0.000  0.001 -0.000
  0.001  0.000  0.992 -0.001 -0.000
 -0.000  0.001 -0.001  0.332  0.000
  0.001 -0.000 -0.000  0.000  0.992
atomic mag. moment =   1.31263
atom    3   Tr[ns(na)] (up, down, total) =   4.95329  3.64066  8.59395
   spin  1
    eigenvalues: 
  0.983  0.983  0.996  0.996  0.996
    eigenvectors:
  0.750  0.250  0.000  0.000  0.000
  0.000  0.000  0.385  0.000  0.615
  0.000  0.000  0.308  0.500  0.192
  0.250  0.750  0.000  0.000  0.000
  0.000  0.000  0.308  0.500  0.192
    occupations:
  0.983 -0.000 -0.000  0.000 -0.000
 -0.000  0.996 -0.000 -0.000  0.000
 -0.000 -0.000  0.996  0.000  0.000
  0.000 -0.000  0.000  0.983 -0.000
 -0.000  0.000  0.000 -0.000  0.996
   spin  2
    eigenvalues: 
  0.332  0.332  0.992  0.992  0.992
    eigenvectors:
  0.750  0.250  0.000  0.000  0.000
  0.000  0.000  0.000  0.279  0.721
  0.000  0.000  0.500  0.360  0.140
  0.250  0.750  0.000  0.000  0.000
  0.000  0.000  0.500  0.360  0.140
    occupations:
  0.332  0.001  0.001  0.000  0.001
  0.001  0.992  0.000  0.001 -0.000
  0.001  0.000  0.992 -0.001 -0.000
  0.000  0.001 -0.001  0.332 -0.000
  0.001 -0.000 -0.000 -0.000  0.992
atomic mag. moment =   1.31263
atom    4   Tr[ns(na)] (up, down, total) =   4.95329  3.64066  8.59395
   spin  1
    eigenvalues: 
  0.983  0.983  0.996  0.996  0.996
    eigenvectors:
  0.000  1.000  0.000  0.000  0.000
  0.000  0.000  0.308  0.500  0.192
  0.000  0.000  0.308  0.500  0.192
  1.000  0.000  0.000  0.000  0.000
  0.000  0.000  0.385  0.000  0.615
    occupations:
  0.983 -0.000 -0.000  0.000 -0.000
 -0.000  0.996 -0.000 -0.000  0.000
 -0.000 -0.000  0.996  0.000  0.000
  0.000 -0.000  0.000  0.983 -0.000
 -0.000  0.000  0.000 -0.000  0.996
   spin  2
    eigenvalues: 
  0.332  0.332  0.992  0.992  0.992
    eigenvectors:
  0.000  1.000  0.000  0.000  0.000
  0.000  0.000  0.500  0.360  0.140
  0.000  0.000  0.500  0.360  0.140
  1.000  0.000  0.000  0.000  0.000
  0.000  0.000  0.000  0.279  0.721
    occupations:
  0.332  0.001  0.001  0.000  0.001
  0.001  0.992  0.000  0.001 -0.000
  0.001  0.000  0.992 -0.001 -0.000
  0.000  0.001 -0.001  0.332 -0.000
  0.001 -0.000 -0.000 -0.000  0.992
atomic mag. moment =   1.31263
atom    5   Tr[ns(na)] (up, down, total) =   3.64061  4.95334  8.59395
   spin  1
    eigenvalues: 
  0.332  0.332  0.992  0.992  0.992
    eigenvectors:
  1.000  0.000  0.000  0.000  0.000
  0.000  0.000  0.500  0.182  0.318
  0.000  0.000  0.500  0.182  0.318
  0.000  1.000  0.000  0.000  0.000
  0.000  0.000  0.000  0.636  0.364
    occupations:
  0.332  0.001  0.001  0.000  0.001
  0.001  0.992  0.000  0.001 -0.000
  0.001  0.000  0.992 -0.001 -0.000
  0.000  0.001 -0.001  0.332 -0.000
  0.001 -0.000 -0.000 -0.000  0.992
   spin  2
    eigenvalues: 
  0.983  0.983  0.996  0.996  0.996
    eigenvectors:
  0.000  1.000  0.000  0.000  0.000
  0.000  0.000  0.494  0.500  0.006
  0.000  0.000  0.494  0.500  0.006
  1.000  0.000  0.000  0.000  0.000
  0.000  0.000  0.012  0.000  0.988
    occupations:
  0.983 -0.000 -0.000  0.000 -0.000
 -0.000  0.996 -0.000 -0.000  0.000
 -0.000 -0.000  0.996  0.000  0.000
  0.000 -0.000  0.000  0.983 -0.000
 -0.000  0.000  0.000 -0.000  0.996
atomic mag. moment =  -1.31273
atom    6   Tr[ns(na)] (up, down, total) =   3.64061  4.95334  8.59395
   spin  1
    eigenvalues: 
  0.332  0.332  0.992  0.992  0.992
    eigenvectors:
  0.250  0.750  0.000  0.000  0.000
  0.000  0.000  0.000  0.636  0.364
  0.000  0.000  0.500  0.182  0.318
  0.750  0.250  0.000  0.000  0.000
  0.000  0.000  0.500  0.182  0.318
    occupations:
  0.332  0.001  0.001 -0.000  0.001
  0.001  0.992  0.000  0.001 -0.000
  0.001  0.000  0.992 -0.001 -0.000
 -0.000  0.001 -0.001  0.332 -0.000
  0.001 -0.000 -0.000 -0.000  0.992
   spin  2
    eigenvalues: 
  0.983  0.983  0.996  0.996  0.996
    eigenvectors:
  0.750  0.250  0.000  0.000  0.000
  0.000  0.000  0.012  0.000  0.988
  0.000  0.000  0.494  0.500  0.006
  0.250  0.750  0.000  0.000  0.000
  0.000  0.000  0.494  0.500  0.006
    occupations:
  0.983 -0.000 -0.000  0.000 -0.000
 -0.000  0.996 -0.000 -0.000  0.000
 -0.000 -0.000  0.996  0.000  0.000
  0.000 -0.000  0.000  0.983 -0.000
 -0.000  0.000  0.000 -0.000  0.996
atomic mag. moment =  -1.31273
atom    7   Tr[ns(na)] (up, down, total) =   3.64061  4.95334  8.59395
   spin  1
    eigenvalues: 
  0.332  0.332  0.992  0.992  0.992
    eigenvectors:
  0.250  0.750  0.000  0.000  0.000
  0.000  0.000  0.500  0.182  0.318
  0.000  0.000  0.000  0.636  0.364
  0.750  0.250  0.000  0.000  0.000
  0.000  0.000  0.500  0.182  0.318
    occupations:
  0.332  0.001  0.001  0.000  0.001
  0.001  0.992  0.000  0.001 -0.000
  0.001  0.000  0.992 -0.001 -0.000
  0.000  0.001 -0.001  0.332  0.000
  0.001 -0.000 -0.000  0.000  0.992
   spin  2
    eigenvalues: 
  0.983  0.983  0.996  0.996  0.996
    eigenvectors:
  0.750  0.250  0.000  0.000  0.000
  0.000  0.000  0.494  0.500  0.006
  0.000  0.000  0.012  0.000  0.988
  0.250  0.750  0.000  0.000  0.000
  0.000  0.000  0.494  0.500  0.006
    occupations:
  0.983 -0.000 -0.000 -0.000 -0.000
 -0.000  0.996 -0.000 -0.000  0.000
 -0.000 -0.000  0.996  0.000  0.000
 -0.000 -0.000  0.000  0.983  0.000
 -0.000  0.000  0.000  0.000  0.996
atomic mag. moment =  -1.31273
atom    8   Tr[ns(na)] (up, down, total) =   3.63942  4.95406  8.59347
   spin  1
    eigenvalues: 
  0.332  0.332  0.992  0.992  0.992
    eigenvectors:
  0.024  0.976  0.000  0.000  0.000
  0.000  0.000  0.000  0.666  0.333
  0.000  0.000  0.510  0.157  0.333
  0.976  0.024  0.000  0.000  0.000
  0.000  0.000  0.490  0.177  0.333
    occupations:
  0.332  0.001  0.001  0.000  0.001
  0.001  0.992  0.000  0.001 -0.000
  0.001  0.000  0.992 -0.001 -0.000
  0.000  0.001 -0.001  0.332 -0.000
  0.001 -0.000 -0.000 -0.000  0.992
   spin  2
    eigenvalues: 
  0.983  0.983  0.996  0.996  0.996
    eigenvectors:
  0.007  0.993  0.000  0.000  0.000
  0.000  0.000  0.333  0.000  0.666
  0.000  0.000  0.333  0.490  0.177
  0.993  0.007  0.000  0.000  0.000
  0.000  0.000  0.333  0.510  0.156
    occupations:
  0.983 -0.000 -0.000  0.000 -0.000
 -0.000  0.996 -0.000 -0.000  0.000
 -0.000 -0.000  0.996  0.000  0.000
  0.000 -0.000  0.000  0.983 -0.000
 -0.000  0.000  0.000 -0.000  0.996
atomic mag. moment =  -1.31464
atom    9   Tr[ns(na)] (up, down, total) =   2.76387  2.76479  5.52866
   spin  1
    eigenvalues: 
  0.921  0.921  0.921
    eigenvectors:
  0.000  0.476  0.524
  0.500  0.262  0.238
  0.500  0.262  0.238
    occupations:
  0.921 -0.000 -0.000
 -0.000  0.921  0.000
 -0.000  0.000  0.921
   spin  2
    eigenvalues: 
  0.921  0.921  0.922
    eigenvectors:
  0.000  0.017  0.983
  0.500  0.491  0.009
  0.500  0.491  0.009
    occupations:
  0.922 -0.000 -0.000
 -0.000  0.921  0.000
 -0.000  0.000  0.921
atomic mag. moment =  -0.00091
atom   10   Tr[ns(na)] (up, down, total) =   2.76391  2.76395  5.52786
   spin  1
    eigenvalues: 
  0.921  0.921  0.921
    eigenvectors:
  0.500  0.167  0.333
  0.500  0.167  0.333
  0.000  0.667  0.333
    occupations:
  0.921 -0.000 -0.000
 -0.000  0.921  0.000
 -0.000  0.000  0.921
   spin  2
    eigenvalues: 
  0.921  0.921  0.921
    eigenvectors:
  0.598  0.068  0.333
  0.376  0.291  0.333
  0.026  0.641  0.333
    occupations:
  0.921 -0.000 -0.000
 -0.000  0.921  0.000
 -0.000  0.000  0.921
atomic mag. moment =  -0.00003
atom   11   Tr[ns(na)] (up, down, total) =   2.76387  2.76479  5.52866
   spin  1
    eigenvalues: 
  0.921  0.921  0.921
    eigenvectors:
  0.500  0.262  0.238
  0.500  0.262  0.238
  0.000  0.476  0.524
    occupations:
  0.921 -0.000 -0.000
 -0.000  0.921  0.000
 -0.000  0.000  0.921
   spin  2
    eigenvalues: 
  0.921  0.921  0.922
    eigenvectors:
  0.500  0.491  0.009
  0.500  0.491  0.009
  0.000  0.017  0.983
    occupations:
  0.921 -0.000 -0.000
 -0.000  0.921  0.000
 -0.000  0.000  0.922
atomic mag. moment =  -0.00091
atom   12   Tr[ns(na)] (up, down, total) =   2.76387  2.76479  5.52866
   spin  1
    eigenvalues: 
  0.921  0.921  0.921
    eigenvectors:
  0.500  0.262  0.238
  0.000  0.476  0.524
  0.500  0.262  0.238
    occupations:
  0.921 -0.000 -0.000
 -0.000  0.921  0.000
 -0.000  0.000  0.921
   spin  2
    eigenvalues: 
  0.921  0.921  0.922
    eigenvectors:
  0.500  0.491  0.009
  0.000  0.017  0.983
  0.500  0.491  0.009
    occupations:
  0.921 -0.000 -0.000
 -0.000  0.922  0.000
 -0.000  0.000  0.921
atomic mag. moment =  -0.00091
atom   13   Tr[ns(na)] (up, down, total) =   2.76387  2.76479  5.52866
   spin  1
    eigenvalues: 
  0.921  0.921  0.921
    eigenvectors:
  0.500  0.262  0.238
  0.500  0.262  0.238
  0.000  0.476  0.524
    occupations:
  0.921 -0.000 -0.000
 -0.000  0.921  0.000
 -0.000  0.000  0.921
   spin  2
    eigenvalues: 
  0.921  0.921  0.922
    eigenvectors:
  0.500  0.491  0.009
  0.500  0.491  0.009
  0.000  0.017  0.983
    occupations:
  0.921 -0.000 -0.000
 -0.000  0.921  0.000
 -0.000  0.000  0.922
atomic mag. moment =  -0.00091
atom   14   Tr[ns(na)] (up, down, total) =   2.76387  2.76479  5.52866
   spin  1
    eigenvalues: 
  0.921  0.921  0.921
    eigenvectors:
  0.500  0.262  0.238
  0.000  0.476  0.524
  0.500  0.262  0.238
    occupations:
  0.921 -0.000 -0.000
 -0.000  0.921  0.000
 -0.000  0.000  0.921
   spin  2
    eigenvalues: 
  0.921  0.921  0.922
    eigenvectors:
  0.500  0.491  0.009
  0.000  0.017  0.983
  0.500  0.491  0.009
    occupations:
  0.921 -0.000 -0.000
 -0.000  0.922  0.000
 -0.000  0.000  0.921
atomic mag. moment =  -0.00091
atom   15   Tr[ns(na)] (up, down, total) =   2.76391  2.76395  5.52786
   spin  1
    eigenvalues: 
  0.921  0.921  0.921
    eigenvectors:
  0.549  0.118  0.333
  0.446  0.220  0.333
  0.005  0.661  0.333
    occupations:
  0.921 -0.000 -0.000
 -0.000  0.921  0.000
 -0.000  0.000  0.921
   spin  2
    eigenvalues: 
  0.921  0.921  0.921
    eigenvectors:
  0.539  0.128  0.333
  0.458  0.209  0.333
  0.003  0.663  0.333
    occupations:
  0.921 -0.000 -0.000
 -0.000  0.921  0.000
 -0.000  0.000  0.921
atomic mag. moment =  -0.00003
atom   16   Tr[ns(na)] (up, down, total) =   2.76387  2.76479  5.52866
   spin  1
    eigenvalues: 
  0.921  0.921  0.921
    eigenvectors:
  0.000  0.476  0.524
  0.500  0.262  0.238
  0.500  0.262  0.238
    occupations:
  0.921 -0.000 -0.000
 -0.000  0.921  0.000
 -0.000  0.000  0.921
   spin  2
    eigenvalues: 
  0.921  0.921  0.922
    eigenvectors:
  0.000  0.017  0.983
  0.500  0.491  0.009
  0.500  0.491  0.009
    occupations:
  0.922 -0.000 -0.000
 -0.000  0.921  0.000
 -0.000  0.000  0.921
atomic mag. moment =  -0.00091
N of occupied +U levels =  112.969226
 --- exit write_ns ---

 ------ SPIN UP ------------


          k = 0.0000 0.0000 0.0000 ( 11935 PWs)   bands (ev):

   -89.7881 -89.7107 -89.7095 -89.7095 -88.1039 -88.1026 -88.1026 -88.0991
   -50.2368 -50.2260 -50.2260 -50.1613 -50.1597 -50.1592 -50.1592 -50.1513
   -50.1513 -50.1423 -50.1382 -50.1382 -48.4255 -48.4242 -48.4242 -48.4171
   -48.4147 -48.4147 -48.4112 -48.4063 -48.4052 -48.4052 -48.3982 -48.3982
    -5.5085  -4.1101  -4.1096  -4.1095  -4.1095  -4.0510  -4.0469  -4.0469
     6.5723   6.5789   6.5789   6.5801   7.8649   7.8650   7.8650   9.0971
     9.0971   9.1040   9.1109   9.1109   9.1344   9.1416   9.1416  10.5122
    10.5122  10.5128  10.5134  10.5140  10.5140  11.4047  11.4047  11.4057
    11.8274  11.8274  11.8298  12.1457  12.1457  12.2778  12.4651  12.4651
    12.5279  12.5348  12.5348  12.8156  12.8156  12.8231  13.0723  13.0788
    13.0788  13.1886  13.1886  13.1895  13.5030  13.5030  13.6310  13.6319
    13.6319  13.7667  13.8548  13.8558  13.8558  13.9727  13.9727  13.9732
    16.1423  16.1423  16.2017  16.2023  16.2023  16.2834  16.2845  16.2845
    16.2918  20.2726  20.2743  20.2743  20.2763  20.9232  20.9335  20.9335
    24.7599  24.7647  24.7647  24.7650  25.2881  25.2882  25.2882  26.9369

          k = 0.2500-0.2500-0.2500 ( 11900 PWs)   bands (ev):

   -89.7881 -89.7103 -89.7099 -89.7095 -88.1033 -88.1029 -88.1024 -88.0991
   -50.2364 -50.2250 -50.2247 -50.1601 -50.1594 -50.1588 -50.1548 -50.1480
   -50.1474 -50.1465 -50.1459 -50.1389 -48.4202 -48.4184 -48.4158 -48.4152
   -48.4144 -48.4127 -48.4122 -48.4111 -48.4111 -48.4080 -48.4027 -48.4005
    -4.8724  -4.8718  -4.0919  -4.0881  -4.0873  -4.0859  -4.0825  -4.0808
     7.5930   7.5981   7.6079   7.6102   7.6203   7.6217   8.6477   8.6500
     8.8810   8.8891   8.9464   8.9540   9.0234   9.0303   9.4228   9.4331
     9.5775   9.5836   9.8804   9.8828  10.0569  10.0605  10.2111  10.2134
    12.2102  12.2249  12.3943  12.4068  12.4652  12.4736  12.6027  12.6154
    12.7373  12.7486  12.8034  12.8149  13.1181  13.1229  13.2293  13.2314
    13.2409  13.2414  13.4545  13.4582  13.5493  13.5513  13.8316  13.8318
    13.8399  13.8402  13.8854  13.8857  13.9192  13.9206  14.0216  14.0218
    15.6329  15.6343  15.6387  15.6401  15.6450  15.6470  15.6561  15.6579
    19.0137  19.0157  22.1873  22.1926  22.2387  22.2401  22.2870  22.2879
    24.4554  24.4579  24.5027  24.5032  24.5514  24.5520  26.3458  26.3485

          k = 0.0000 0.0000-0.5000 ( 11854 PWs)   bands (ev):

   -89.7880 -89.7103 -89.7098 -89.7093 -88.1034 -88.1029 -88.1023 -88.0990
   -50.2362 -50.2248 -50.2242 -50.1603 -50.1593 -50.1583 -50.1544 -50.1477
   -50.1469 -50.1458 -50.1457 -50.1391 -48.4198 -48.4180 -48.4161 -48.4153
   -48.4138 -48.4124 -48.4118 -48.4107 -48.4102 -48.4073 -48.4028 -48.4006
    -4.7368  -4.7357  -4.2403  -4.2399  -4.2398  -4.2378  -3.9399  -3.9361
     7.5685   7.5734   7.5788   7.5830   8.3269   8.3295   8.6434   8.6470
     8.6480   8.6512   8.9694   8.9736   9.2221   9.2292   9.2531   9.2646
     9.2722   9.2784   9.2785   9.2840  10.7125  10.7161  10.7213  10.7241
    11.8202  11.8351  12.5321  12.5380  12.6132  12.6207  12.6240  12.6379
    12.6379  12.6421  12.7486  12.7600  12.9294  12.9405  13.0781  13.0881
    13.1128  13.1162  13.1619  13.1715  13.4966  13.4979  13.5898  13.5929
    13.7343  13.7359  13.8120  13.8135  13.9254  13.9269  13.9271  13.9282
    15.0508  15.0518  15.3143  15.3152  16.1145  16.1155  16.2138  16.2151
    20.2168  20.2197  21.7733  21.7736  21.7737  21.7755  23.2906  23.2963
    25.3876  25.3877  25.3894  25.3895  25.6748  25.6767  25.6815  25.6848

          k =-0.2500-0.2500-0.2500 ( 11900 PWs)   bands (ev):

   -89.7881 -89.7107 -89.7095 -89.7095 -88.1039 -88.1025 -88.1025 -88.0990
   -50.2369 -50.2254 -50.2254 -50.1615 -50.1592 -50.1592 -50.1590 -50.1507
   -50.1507 -50.1418 -50.1379 -50.1379 -48.4250 -48.4236 -48.4236 -48.4179
   -48.4148 -48.4148 -48.4114 -48.4060 -48.4048 -48.4048 -48.3980 -48.3980
    -4.8751  -4.8693  -4.0980  -4.0938  -4.0938  -4.0771  -4.0768  -4.0768
     7.5588   7.5640   7.5640   7.6539   7.6550   7.6550   8.6327   8.6681
     8.8155   8.8211   8.8211   9.2451   9.2451   9.2457   9.3165   9.3244
     9.3244   9.5561   9.5561  10.0174  10.0174  10.0175  10.4405  10.4405
    12.0731  12.0731  12.0799  12.2594  12.2594  12.6994  12.7019  12.7115
    12.7115  13.0291  13.0291  13.0295  13.0926  13.0926  13.0940  13.3127
    13.3127  13.4295  13.4295  13.4299  13.4510  13.6415  13.6433  13.6433
    13.8351  13.8361  13.8361  13.8888  13.8888  13.9907  13.9907  13.9915
    15.6342  15.6353  15.6353  15.6513  15.6513  15.6628  15.6641  15.6641
    18.9469  19.0840  22.1597  22.1697  22.1697  22.3097  22.3097  22.3114
    24.4384  24.4463  24.4463  24.5660  24.5660  24.5693  26.3360  26.3393

 ------ SPIN DOWN ----------


          k = 0.0000 0.0000 0.0000 ( 11935 PWs)   bands (ev):

   -89.7111 -89.7098 -89.7098 -89.7087 -88.1695 -88.1037 -88.1025 -88.1025
   -50.1620 -50.1600 -50.1597 -50.1597 -50.1592 -50.1592 -50.1584 -50.1426
   -50.1423 -50.1423 -50.1360 -50.1360 -48.4798 -48.4783 -48.4783 -48.4254
   -48.4166 -48.4159 -48.4159 -48.4145 -48.4145 -48.4064 -48.4016 -48.4016
    -5.5097  -4.1114  -4.1113  -4.1113  -4.1103  -4.0516  -4.0490  -4.0490
     6.5708   6.5782   6.5782   6.5794   7.8640   7.8640   7.8641   9.0954
     9.0954   9.1035   9.1068   9.1068   9.1337   9.1363   9.1363  10.5107
    10.5107  10.5118  10.5119  10.5130  10.5130  11.4014  11.4020  11.4020
    11.8259  11.8259  11.8282  12.1396  12.1396  12.2743  12.4679  12.4679
    12.5279  12.5310  12.5310  12.8153  12.8153  12.8170  13.0722  13.0757
    13.0757  13.1865  13.1865  13.1883  13.5094  13.5094  13.6353  13.6361
    13.6361  13.7715  13.8547  13.8671  13.8671  13.9785  13.9785  13.9842
    16.1455  16.1455  16.2014  16.2083  16.2083  16.2833  16.2916  16.2917
    16.2917  20.2724  20.2741  20.2741  20.2764  20.9248  20.9334  20.9334
    24.7573  24.7642  24.7642  24.7645  25.2873  25.2873  25.2873  26.9369

          k = 0.2500-0.2500-0.2500 ( 11900 PWs)   bands (ev):

   -89.7106 -89.7103 -89.7098 -89.7087 -88.1694 -88.1032 -88.1028 -88.1024
   -50.1604 -50.1600 -50.1590 -50.1581 -50.1550 -50.1544 -50.1483 -50.1480
   -50.1468 -50.1461 -50.1391 -50.1385 -48.4795 -48.4772 -48.4766 -48.4201
   -48.4157 -48.4149 -48.4143 -48.4127 -48.4119 -48.4111 -48.4102 -48.4026
    -4.8737  -4.8731  -4.0935  -4.0922  -4.0888  -4.0863  -4.0837  -4.0810
     7.5927   7.5932   7.6069   7.6099   7.6185   7.6236   8.6467   8.6488
     8.8794   8.8825   8.9455   8.9484   9.0226   9.0265   9.4219   9.4236
     9.5770   9.5809   9.8799   9.8866  10.0559  10.0629  10.2103  10.2174
    12.2103  12.2110  12.3943  12.3974  12.4648  12.4706  12.6028  12.6056
    12.7372  12.7396  12.8036  12.8038  13.1175  13.1212  13.2283  13.2366
    13.2403  13.2571  13.4537  13.4574  13.5484  13.5529  13.8303  13.8388
    13.8389  13.8492  13.8844  13.8973  13.9191  13.9353  14.0203  14.0293
    15.6328  15.6375  15.6385  15.6449  15.6450  15.6558  15.6693  15.6781
    19.0133  19.0152  22.1929  22.1940  22.2376  22.2396  22.2821  22.2854
    24.4596  24.4605  24.5021  24.5029  24.5470  24.5488  26.3509  26.3520

          k = 0.0000 0.0000-0.5000 ( 11854 PWs)   bands (ev):

   -89.7106 -89.7102 -89.7096 -89.7086 -88.1693 -88.1033 -88.1027 -88.1022
   -50.1606 -50.1601 -50.1585 -50.1577 -50.1546 -50.1540 -50.1480 -50.1476
   -50.1460 -50.1454 -50.1393 -50.1387 -48.4793 -48.4769 -48.4760 -48.4197
   -48.4159 -48.4148 -48.4136 -48.4124 -48.4113 -48.4102 -48.4101 -48.4027
    -4.7377  -4.7375  -4.2416  -4.2415  -4.2405  -4.2397  -3.9409  -3.9382
     7.5681   7.5682   7.5784   7.5807   8.3263   8.3298   8.6421   8.6456
     8.6464   8.6503   8.9688   8.9722   9.2218   9.2250   9.2528   9.2575
     9.2708   9.2764   9.2777   9.2833  10.7108  10.7143  10.7195  10.7235
    11.8201  11.8273  12.5319  12.5337  12.6130  12.6147  12.6236  12.6248
    12.6378  12.6463  12.7482  12.7512  12.9288  12.9312  13.0779  13.0784
    13.1126  13.1193  13.1611  13.1620  13.4963  13.5137  13.5897  13.6009
    13.7339  13.7466  13.8115  13.8283  13.9254  13.9266  13.9413  13.9417
    15.0508  15.0674  15.3143  15.3311  16.1143  16.1232  16.2136  16.2251
    20.2160  20.2191  21.7721  21.7732  21.7733  21.7751  23.2909  23.2961
    25.3868  25.3878  25.3886  25.3893  25.6746  25.6768  25.6814  25.6824

          k =-0.2500-0.2500-0.2500 ( 11900 PWs)   bands (ev):

   -89.7112 -89.7098 -89.7098 -89.7086 -88.1694 -88.1036 -88.1023 -88.1023
   -50.1623 -50.1594 -50.1594 -50.1592 -50.1587 -50.1587 -50.1584 -50.1421
   -50.1418 -50.1418 -50.1357 -50.1357 -48.4801 -48.4779 -48.4779 -48.4249
   -48.4173 -48.4154 -48.4154 -48.4147 -48.4147 -48.4060 -48.4014 -48.4014
    -4.8758  -4.8712  -4.0992  -4.0992  -4.0983  -4.0779  -4.0752  -4.0752
     7.5574   7.5593   7.5593   7.6524   7.6585   7.6585   8.6294   8.6690
     8.8126   8.8126   8.8138   9.2471   9.2503   9.2503   9.3154   9.3154
     9.3159   9.5493   9.5493  10.0170  10.0232  10.0232  10.4447  10.4447
    12.0672  12.0672  12.0675  12.2514  12.2514  12.6932  12.7019  12.7021
    12.7021  13.0364  13.0364  13.0418  13.0876  13.0876  13.0876  13.3219
    13.3219  13.4268  13.4268  13.4276  13.4587  13.6404  13.6404  13.6408
    13.8350  13.8478  13.8478  13.8871  13.8871  13.9958  13.9958  14.0030
    15.6342  15.6393  15.6393  15.6541  15.6541  15.6627  15.6826  15.6826
    18.9482  19.0815  22.1674  22.1674  22.1686  22.3024  22.3113  22.3113
    24.4428  24.4428  24.4461  24.5612  24.5684  24.5684  26.3327  26.3396

     the Fermi energy is    14.5399 ev

!    total energy              =   -2948.14854732 Ry
     estimated scf accuracy    <          4.9E-09 Ry
     smearing contrib. (-TS)   =      -0.00000001 Ry
     internal energy E=F+TS    =   -2948.14854732 Ry

     The total energy is F=E-TS. E is the sum of the following terms:
     one-electron contribution =   -1497.17964359 Ry
     hartree contribution      =     868.77119895 Ry
     xc contribution           =    -409.99798161 Ry
     ewald contribution        =   -1909.80521500 Ry
     Hubbard energy            =       0.06309393 Ry

     total magnetization       =     0.00 Bohr mag/cell
     absolute magnetization    =    12.68 Bohr mag/cell

     convergence has been achieved in  21 iterations

     Writing output data file ./pwscf.save/
 
     init_run     :      0.27s CPU      0.59s WALL (       1 calls)
     electrons    :      9.98s CPU     10.38s WALL (       1 calls)

     Called by init_run:
     wfcinit      :      0.14s CPU      0.30s WALL (       1 calls)
     potinit      :      0.03s CPU      0.10s WALL (       1 calls)
     hinit0       :      0.04s CPU      0.08s WALL (       1 calls)

     Called by electrons:
     c_bands      :      8.39s CPU      8.67s WALL (      21 calls)
     sum_band     :      1.03s CPU      1.07s WALL (      21 calls)
     v_of_rho     :      0.41s CPU      0.45s WALL (      22 calls)
     mix_rho      :      0.12s CPU      0.14s WALL (      21 calls)

     Called by c_bands:
     init_us_2    :      0.14s CPU      0.15s WALL (      88 calls)
     cegterg      :      7.02s CPU      7.29s WALL (      42 calls)

     Called by *egterg:
     cdiaghg      :      1.66s CPU      1.79s WALL (     128 calls)
     h_psi        :      4.08s CPU      4.22s WALL (     130 calls)
     g_psi        :      0.02s CPU      0.02s WALL (      86 calls)

     Called by h_psi:
     h_psi:calbec :      0.43s CPU      0.43s WALL (     130 calls)
     vloc_psi     :      2.65s CPU      2.72s WALL (     130 calls)
     add_vuspsi   :      0.46s CPU      0.47s WALL (     130 calls)
     vhpsi        :      0.51s CPU      0.51s WALL (     130 calls)

     General routines
     calbec       :      0.68s CPU      0.70s WALL (     304 calls)
     fft          :      0.11s CPU      0.14s WALL (     416 calls)
     ffts         :      0.01s CPU      0.01s WALL (      42 calls)
     fftw         :      2.97s CPU      3.05s WALL (   27520 calls)
     davcio       :      0.00s CPU      0.00s WALL (       2 calls)
 
     Parallel routines
     fft_scatt_xy :      0.92s CPU      0.95s WALL (   27978 calls)
     fft_scatt_yz :      1.15s CPU      1.18s WALL (   27978 calls)

     Hubbard U routines
     new_ns       :      0.12s CPU      0.13s WALL (      21 calls)
     new_ns       :      0.12s CPU      0.13s WALL (      21 calls)
     vhpsi        :      0.51s CPU      0.51s WALL (     130 calls)
 
     PWSCF        :     10.72s CPU     12.06s WALL

 
   This run was terminated on:  14:22: 6   8Sep2023            

=------------------------------------------------------------------------------=
   JOB DONE.
=------------------------------------------------------------------------------=
